LAMMPS (7 Aug 2019)
# sample LAMMPS input script for diffusion of 2d LJ liquid
# mean-squared displacement via compute msd

# settings

variable	x equal 20
variable	y equal 20
variable        z equal 20

variable	rho equal 0.6
variable        t equal 1.0
variable	rc equal 2.5

# problem setup

units		lj
dimension	3
atom_style	atomic
neigh_modify	delay 0 every 1

lattice         sc ${rho}
lattice         sc 0.6
Lattice spacing in x,y,z = 1.18563 1.18563 1.18563
region          simbox block 0 $x 0 $y 0 $z
region          simbox block 0 20 0 $y 0 $z
region          simbox block 0 20 0 20 0 $z
region          simbox block 0 20 0 20 0 20
create_box      1 simbox
Created orthogonal box = (0 0 0) to (23.7126 23.7126 23.7126)
  1 by 1 by 1 MPI processor grid
create_atoms    1 box
Created 8000 atoms
  create_atoms CPU = 0.000905991 secs

pair_style      lj/cut ${rc}
pair_style      lj/cut 2.5
pair_coeff      * * 1 1

mass            * 1.0
velocity        all create $t 97287
velocity        all create 1 97287

fix             1 all nve
fix	        2 all langevin $t $t 0.1 498094
fix	        2 all langevin 1 $t 0.1 498094
fix	        2 all langevin 1 1 0.1 498094

# equilibration run

thermo          1000
run	        5000
Neighbor list info ...
  update every 1 steps, delay 0 steps, check yes
  max neighbors/atom: 2000, page size: 100000
  master list distance cutoff = 2.8
  ghost atom cutoff = 2.8
  binsize = 1.4, bins = 17 17 17
  1 neighbor lists, perpetual/occasional/extra = 1 0 0
  (1) pair lj/cut, perpetual
      attributes: half, newton on
      pair build: half/bin/atomonly/newton
      stencil: half/bin/3d/newton
      bin: standard
Per MPI rank memory allocation (min/avg/max) = 4.232 | 4.232 | 4.232 Mbytes
Step Temp E_pair E_mol TotEng Press 
       0            1   -4.0738092            0   -2.5739967   -2.3602171 
    1000    1.0061151   -3.8973236            0   -2.3883396  0.060605752 
    2000    1.0207496   -3.8910681            0   -2.3601351   0.12844856 
    3000   0.99709252   -3.8789217            0   -2.3834699   0.10318624 
    4000   0.99048746   -3.9039443            0   -2.4183988  0.076806326 
    5000    1.0053112   -3.8934634            0    -2.385685   0.13271823 
Loop time of 23.3882 on 1 procs for 5000 steps with 8000 atoms

Performance: 92354.355 tau/day, 213.783 timesteps/s
98.8% CPU use with 1 MPI tasks x no OpenMP threads

MPI task timing breakdown:
Section |  min time  |  avg time  |  max time  |%varavg| %total
---------------------------------------------------------------
Pair    | 15.06      | 15.06      | 15.06      |   0.0 | 64.39
Neigh   | 6.6706     | 6.6706     | 6.6706     |   0.0 | 28.52
Comm    | 0.35193    | 0.35193    | 0.35193    |   0.0 |  1.50
Output  | 0.00011611 | 0.00011611 | 0.00011611 |   0.0 |  0.00
Modify  | 1.1009     | 1.1009     | 1.1009     |   0.0 |  4.71
Other   |            | 0.2042     |            |       |  0.87

Nlocal:    8000 ave 8000 max 8000 min
Histogram: 1 0 0 0 0 0 0 0 0 0
Nghost:    7096 ave 7096 max 7096 min
Histogram: 1 0 0 0 0 0 0 0 0 0
Neighs:    217350 ave 217350 max 217350 min
Histogram: 1 0 0 0 0 0 0 0 0 0

Total # of neighbors = 217350
Ave neighs/atom = 27.1687
Neighbor list builds = 677
Dangerous builds = 0

unfix		2

# data gathering run

reset_timestep  0

compute         vacf all vacf
fix             4 all ave/time 1 1 1 c_vacf[4] #file tmp.vacf

# factor of 0.33333 is for 3d

fix             5 all vector 1 c_vacf[4]
variable        vacf equal 0.33333*dt*trap(f_5)

thermo_style	custom step temp c_vacf[4] v_vacf

thermo          100
run	        100000
Per MPI rank memory allocation (min/avg/max) = 4.611 | 4.611 | 4.611 Mbytes
Step Temp c_vacf[4] v_vacf 
       0    1.0053112    3.0155566            0 
     100    1.0082882    0.1629592   0.14227243 
     200     1.005765  0.037170779   0.15454177 
     300    1.0150665  0.014099631   0.16084754 
     400    1.0040267  0.022396911   0.16198427 
     500    1.0022418 0.0055122376   0.16189789 
     600    1.0128458   0.03872238    0.1656015 
     700    1.0097707  0.017143025   0.16961399 
     800    1.0081015 0.0066010419   0.16980479 
     900    1.0028753 -0.0059175506   0.17093528 
    1000    1.0112795  0.031841216   0.17234804 
    1100     1.003128 0.0083518761   0.17352761 
    1200    1.0074957 -0.028157771   0.17328053 
    1300    1.0081617 0.0048454191   0.17280085 
    1400    0.9971772 -0.0075454758   0.17092165 
    1500   0.99749244 0.00068655854   0.17355708 
    1600    1.0043606 0.0060656841    0.1739939 
    1700   0.99712654 0.0054504905   0.17556003 
    1800    1.0133489 -0.006783589   0.17715307 
    1900    1.0084761 -0.0060272042   0.17793433 
    2000    1.0088789 -0.025486375   0.17484746 
    2100     1.002813  0.023460566    0.1763123 
    2200    1.0001925 0.0079190625    0.1767986 
    2300    1.0018966 0.0047667986   0.17835538 
    2400    1.0106727 0.0080276189   0.17779624 
    2500    1.0167006   0.01127413    0.1793703 
    2600    1.0070321 -0.020749268   0.17979218 
    2700    1.0167193 -0.0076056834   0.18089823 
    2800    1.0119336  0.014853919   0.17880138 
    2900    1.0088351 -0.0034678583   0.18008114 
    3000    1.0069249  0.010586285   0.17942002 
    3100    1.0116607 -0.0047649154    0.1773465 
    3200    1.0142755 -0.0021482518    0.1762354 
    3300     1.014456  0.021583515   0.17623408 
    3400    1.0154515 -0.0023284272   0.17515684 
    3500    1.0105411 -0.001063769   0.17461171 
    3600    1.0036784 -0.048306137   0.17299965 
    3700    1.0001607 0.0094965553   0.16895662 
    3800    1.0088278  0.018059233   0.16759431 
    3900    1.0138475 -0.018106535    0.1679891 
    4000    1.0059737 -0.013700618   0.16734585 
    4100    1.0089769  0.030263411   0.16711272 
    4200    1.0036111  -0.01667674   0.16793105 
    4300    1.0080081 -0.0075194717   0.16817974 
    4400    1.0075729  0.038586781   0.17007767 
    4500    1.0140106  0.022972778   0.17171438 
    4600    1.0075976 0.0082737641    0.1725283 
    4700    1.0143667   0.01574785   0.17554414 
    4800    1.0096824 -0.0099658398   0.17320945 
    4900    1.0024179 -0.016691288   0.17388676 
    5000    1.0038789 -0.034520249   0.17226232 
    5100    1.0012156  0.020053012   0.17194925 
    5200   0.99428299 -0.0020309488    0.1700748 
    5300   0.99997038 -0.028253699   0.16967414 
    5400     1.001166 -0.0025311797   0.16897244 
    5500    1.0117525 -0.029994682   0.16941604 
    5600    1.0032155 -0.0045283126   0.16560856 
    5700    1.0015106 -0.020219146   0.16336413 
    5800    1.0068645 -0.047250534   0.16043661 
    5900    1.0014461  0.010875051   0.15894022 
    6000   0.99419537  0.036538409   0.15947602 
    6100    1.0060877  0.030513228   0.16289146 
    6200    1.0059571  -0.01789255   0.16424633 
    6300    1.0085607 -0.0011389034   0.16284921 
    6400    1.0080122 -0.017652717   0.15996655 
    6500    1.0164756 -0.0090200042   0.15870688 
    6600   0.99724686 -0.0093616759   0.15864568 
    6700   0.99853497 -0.0064094671   0.15843777 
    6800    1.0026925 0.0042591315   0.15814503 
    6900    1.0055721  0.016741237   0.16060297 
    7000     1.014246  0.014378814    0.1601755 
    7100    1.0024547 -0.0083553375    0.1616243 
    7200    1.0035166 0.0020433962   0.16071516 
    7300    1.0043093 -0.0077110161   0.16284785 
    7400    1.0066916 -0.019759833   0.16360857 
    7500    1.0038727 -0.051128247   0.16013008 
    7600     1.008788 -0.012368257   0.15759528 
    7700    1.0194531  0.012913787   0.16066006 
    7800    1.0037806 -0.016050906   0.16156776 
    7900    1.0040616  0.013129224    0.1581522 
    8000    1.0225288 -0.0074756188   0.15799436 
    8100    1.0023065  0.012916339   0.16101884 
    8200   0.99503268 -0.0032811357   0.16158538 
    8300    1.0087274 -0.0095540537   0.16106041 
    8400    0.9946538 -0.0074782143   0.16083189 
    8500    1.0000894 -0.037767148   0.15867601 
    8600    1.0033729 0.0026084472   0.15762195 
    8700   0.99682114 0.0035600702   0.15638035 
    8800    1.0083348 -0.010316445   0.15644657 
    8900    1.0099296  0.018398855   0.15701423 
    9000    1.0052824 -0.017963298   0.15929938 
    9100     1.000499 -0.0025973328   0.16058898 
    9200    1.0062615 -0.034239459   0.15984053 
    9300    1.0025429 -0.0063226785   0.15626071 
    9400    1.0058421 -0.0059180979   0.15387058 
    9500    1.0097252 0.0041148967   0.15099163 
    9600    1.0039926  0.047075673   0.15345474 
    9700    1.0049806 -0.00056150429   0.15431933 
    9800   0.99818797  0.010695101   0.15170066 
    9900    1.0049781 -0.025434703   0.14922257 
   10000    0.9981771  0.020150585   0.14910305 
   10100    1.0108151  0.010504312    0.1515799 
   10200    1.0040614 -0.059446016   0.14760505 
   10300    1.0085418 -0.023072929   0.14586971 
   10400    1.0088372 -0.018047395   0.14595422 
   10500    1.0034404 -0.001833041   0.14559763 
   10600     1.009213  0.021008699   0.14848344 
   10700    1.0015472  0.013404813   0.14810233 
   10800    1.0076739 0.0026837099   0.15032393 
   10900    1.0025143 -0.005068823   0.15188736 
   11000    1.0094365 -0.035840352   0.14965824 
   11100    1.0042588  0.022729182   0.14637778 
   11200    1.0038095  0.013375609   0.14906753 
   11300    1.0097533 -0.0048450359   0.14902226 
   11400    1.0092321 0.0030898873    0.1478741 
   11500    1.0040779 -0.0029491251   0.14699414 
   11600   0.99666094  0.015197524   0.14677353 
   11700   0.99776199  -0.01289284   0.14455214 
   11800    1.0048963 -0.070860974   0.13892021 
   11900      1.00463  0.025409251   0.13830813 
   12000    1.0074518  0.019552135   0.14021512 
   12100    1.0066904  0.027250322   0.13967707 
   12200    1.0038103 -0.044202932   0.13968992 
   12300    1.0092687 -0.026899017     0.135035 
   12400     1.006417  0.023463086   0.13440971 
   12500   0.99842448  0.017534461   0.13666735 
   12600    1.0008333 0.0097824553   0.13734962 
   12700    1.0063353 0.0048586648   0.14026467 
   12800    1.0032982  0.026324639   0.14166667 
   12900    1.0130309  0.017571027   0.14561709 
   13000    1.0025048  -0.01361884    0.1429517 
   13100     1.003784  0.015041997   0.14313542 
   13200   0.99989797  0.019324964   0.14416847 
   13300   0.99438221 -0.00044572117   0.14483246 
   13400    1.0041779 -0.019194027   0.14502445 
   13500    1.0049499 -0.029311907   0.14255398 
   13600    1.0094951 -0.015103923   0.14032724 
   13700    1.0092023 -0.015111752   0.13849427 
   13800    1.0055705  0.034507381    0.1426766 
   13900    1.0157865 -0.017247712   0.14230103 
   14000     1.011638   0.01169455   0.14072079 
   14100    1.0012796  0.010027759    0.1417185 
   14200    1.0016783  0.023678211   0.14247363 
   14300    1.0070374  0.019570884   0.14780412 
   14400   0.99544254  0.020412426   0.14756893 
   14500    1.0100025 -0.0012437051   0.14668066 
   14600   0.99942242  0.018441048   0.14839926 
   14700    1.0078598 -0.019012371   0.14968879 
   14800    1.0059573 -0.016124224   0.14932095 
   14900    0.9980339  -0.02273872   0.14451883 
   15000    1.0023199 -0.023901094   0.14258768 
   15100    1.0043839  0.024461318   0.14314623 
   15200    1.0109182 0.0083778653   0.14489682 
   15300    1.0177456 0.0044467397   0.14783679 
   15400    1.0099223  0.017648137    0.1495201 
   15500    1.0085619 0.0041492296   0.15095816 
   15600     1.006261 0.0011833724   0.15328498 
   15700   0.99826903 -0.027073505   0.15455554 
   15800    1.0049269  0.015085606   0.15456387 
   15900    1.0027947 -0.029934494    0.1531491 
   16000    1.0042799 -0.019766251   0.15376921 
   16100    1.0123168 -0.0090570852   0.15497223 
   16200   0.99800636 0.0015857981   0.15498444 
   16300    1.0021386 -0.0050884887   0.15522754 
   16400    1.0000345  0.028781169   0.15503734 
   16500    1.0032384 0.0023779476   0.15894531 
   16600    1.0044981 0.00046999446   0.15863346 
   16700      1.00298  0.016244409   0.15689846 
   16800    1.0077847  0.023682661   0.15730208 
   16900    1.0055207   0.01478519   0.15778197 
   17000    1.0001042 -0.011910814   0.15624114 
   17100    1.0151456  -0.03824257   0.15460781 
   17200    1.0177635 -0.00081650818    0.1509218 
   17300   0.99921096  0.017306111   0.15208504 
   17400    1.0071321  0.027361804   0.15157583 
   17500    1.0185823 -0.014348617   0.15332293 
   17600    1.0085277   0.06450153   0.15706591 
   17700    1.0005336 -0.037100193   0.16139683 
   17800    1.0013809 0.0087361941   0.16103018 
   17900   0.99936243  0.016212231   0.15947311 
   18000    1.0005826 -0.0071780937    0.1573134 
   18100    1.0091871  0.003521382   0.15628616 
   18200    1.0023824 -0.015209807   0.15694214 
   18300    1.0010627  0.024091456   0.15878627 
   18400    1.0026292 -0.0036195134    0.1596019 
   18500    1.0008841 -0.0098424269   0.15801404 
   18600    1.0104352 -0.017833262   0.15504908 
   18700    1.0110281 -0.017413388   0.15428186 
   18800     1.008145 -0.00046395864    0.1536661 
   18900    1.0086628  0.030287136   0.15459297 
   19000    1.0120164 -0.028577452   0.15551165 
   19100    1.0064446  0.036343525   0.15764761 
   19200    1.0043255  0.019156771    0.1596957 
   19300     1.013107  0.025881178   0.15867754 
   19400   0.99628331 0.0046330959   0.16047866 
   19500    1.0038393 -0.019847445    0.1587843 
   19600    1.0101769 -0.0058304896   0.15591102 
   19700    1.0048029  0.022055063   0.15759759 
   19800   0.99897762  0.007145686   0.15930131 
   19900    1.0115506 -0.009082346   0.16016242 
   20000     1.003773 -0.019547588   0.15742887 
   20100    1.0095016 -0.0021209408   0.15522143 
   20200    1.0047089  0.022401324   0.15472347 
   20300    1.0073512  0.041173647    0.1578136 
   20400   0.99824423  -0.02162052    0.1561882 
   20500    1.0105901 -0.035761157    0.1548003 
   20600    1.0048779 -0.013123919   0.14989938 
   20700    1.0141846 -0.038259719   0.14608289 
   20800    1.0044163 0.0038993896   0.14188627 
   20900    1.0028946  0.012804152   0.14351253 
   21000    1.0101955 -0.0012324144   0.14396539 
   21100    1.0068775  0.014488429   0.14519742 
   21200    1.0089125 -0.011691811   0.14665529 
   21300    1.0105256 -0.032101624   0.14511486 
   21400    1.0146364 -0.041689827   0.14159556 
   21500    1.0076582 -0.015207727   0.13893293 
   21600    1.0091244  0.017304641   0.13844835 
   21700     1.010886 0.0076010489   0.13820181 
   21800    1.0206237 -0.029219506   0.13678794 
   21900    1.0103213  0.023445284   0.13430785 
   22000    1.0134312 0.0075315886   0.13554762 
   22100        1.007  0.020978702   0.13991513 
   22200    1.0103764 0.0049267638   0.13922358 
   22300    1.0071433 -0.003164673   0.14071165 
   22400    1.0113718 0.0054969822   0.14179916 
   22500     1.005554 -0.012676584   0.14154549 
   22600    1.0091561 -0.017508973   0.14101773 
   22700    1.0058003 -0.0015518058   0.13586865 
   22800    1.0076693 -0.026013245   0.13101155 
   22900   0.99690878  -0.02340434   0.13294671 
   23000    1.0104004  0.015769983   0.13281711 
   23100    1.0038065 -0.007955047    0.1334301 
   23200    1.0140702 -0.027786209   0.13293142 
   23300    1.0211806 -0.014154221   0.12853997 
   23400    1.0107562 0.0051759041   0.13135164 
   23500    1.0062338 -0.0083630798   0.13263612 
   23600    1.0043797  0.007648495   0.13135882 
   23700    1.0090403 -0.020621479   0.13003389 
   23800    1.0054017 -0.0055368923   0.13215003 
   23900   0.99944221 -0.028561227   0.13175461 
   24000    1.0078991 -0.015698589   0.13257211 
   24100    1.0020569 -0.027888571    0.1317922 
   24200    1.0147753 -0.020609176   0.13077792 
   24300    1.0067384  0.014615836   0.12865243 
   24400   0.98666488 0.0019252058   0.12807545 
   24500    1.0009468  0.013720193   0.12911699 
   24600    1.0054438 -0.0051456995   0.12715428 
   24700    1.0059577 -0.0003543315   0.12284002 
   24800    1.0084232 0.00061608383    0.1225467 
   24900     1.009054  0.011900986   0.12481834 
   25000    1.0052108 -0.00062943886   0.12758324 
   25100    1.0043743 -0.020208014   0.12472853 
   25200    1.0119859  -0.02095336   0.12588062 
   25300    1.0018646 -0.038932048   0.12245486 
   25400    1.0091058 -0.017142082   0.12066152 
   25500    1.0141344 0.0088701428    0.1190396 
   25600    1.0056486 -0.024629852   0.11899031 
   25700    1.0037513 -0.039575135   0.11603628 
   25800    0.9989963 -0.0052028745   0.11495346 
   25900    1.0032411 0.0095468919     0.116974 
   26000    1.0168176 0.0046633667   0.11858313 
   26100    1.0051724  0.027437081   0.11823899 
   26200    1.0017455 0.0039260201   0.11697632 
   26300     1.005974  0.032733927   0.11869515 
   26400    1.0024815 0.0045967849   0.11804837 
   26500   0.99754481 -0.00077907493   0.11974471 
   26600    1.0078845 -0.019570104   0.11848216 
   26700    1.0063734 -0.013958963    0.1165875 
   26800    1.0002709 -0.014296992   0.11752006 
   26900    1.0058255  0.025925095   0.11710114 
   27000    1.0080179  0.002085292   0.11613197 
   27100    1.0083276 -0.011821167   0.11676941 
   27200    1.0096772 -0.0098299277   0.11665361 
   27300    1.0083374 -0.013295839   0.11519982 
   27400    1.0145977 0.0077297136   0.11519225 
   27500     1.012463 -0.042200058   0.11453726 
   27600    1.0146196  0.022973536    0.1152206 
   27700    1.0050211   0.01422023   0.12024038 
   27800   0.99538054 0.00068576819   0.12153663 
   27900    1.0066307     0.026014   0.12146491 
   28000   0.99804211 0.0012305387   0.12390684 
   28100    1.0135628  0.014904297   0.12304092 
   28200    1.0047842 -0.040682877   0.11751592 
   28300    1.0046252 -0.012734378   0.11450323 
   28400    1.0116606  0.021958347   0.11482523 
   28500    1.0069383 0.00011237635   0.11766159 
   28600    1.0049254  0.027724013   0.11970002 
   28700    1.0018025  0.036986657   0.12191093 
   28800    1.0133259 -0.016277069   0.12332265 
   28900    1.0170174  0.016752798   0.12269099 
   29000    0.9957544 0.0049734992   0.12580488 
   29100    1.0057225  0.011459833    0.1271014 
   29200    1.0055898   0.04433469    0.1322829 
   29300    1.0104264 -0.00099675199   0.13556428 
   29400    1.0111213 -0.0075521276   0.13510455 
   29500   0.99829648 0.0042651262   0.13632511 
   29600    1.0034854 -0.036453003   0.13374056 
   29700   0.99624851 0.0047013939   0.13153394 
   29800    1.0044702 -0.0081327399   0.12855578 
   29900     1.017189 0.0015470198   0.12881082 
   30000    1.0161182   0.01796689   0.13114539 
   30100    1.0081786  0.012578898   0.13123641 
   30200    1.0082274 0.0082939523   0.12994014 
   30300    1.0097938  0.024261803   0.13004719 
   30400    1.0025779 0.0022753099   0.13342161 
   30500    1.0109281 0.0042854148   0.13468142 
   30600     1.014915 -0.0050667904   0.13729971 
   30700    1.0090601 -0.023157627   0.13634774 
   30800    1.0007027 -0.011016906   0.13336243 
   30900    1.0035307 -0.0022133792   0.13495659 
   31000    1.0029371 -0.028527011   0.13380942 
   31100     1.005473  0.014710785   0.13193211 
   31200    1.0096937  0.026220327   0.13453485 
   31300    1.0100859 -0.031856312    0.1372352 
   31400    1.0016904 0.0095806097   0.13895825 
   31500    1.0074042 -0.019814063   0.13910705 
   31600    1.0066353  0.034055918   0.14047943 
   31700    1.0091781  0.017039298   0.13922264 
   31800    1.0141052 -0.040415156   0.13608438 
   31900    1.0125662 0.0069011539    0.1343731 
   32000    1.0083512  -0.02959042   0.13554906 
   32100    1.0048864 0.0022783179   0.13411545 
   32200    1.0033987 -0.0056989607   0.13221034 
   32300    1.0040363 -0.017084594   0.12967128 
   32400    1.0060849 0.00039643985   0.13112718 
   32500    1.0074527 -0.0029246705   0.12877875 
   32600    1.0060895 -0.024839329   0.12903005 
   32700    1.0033629 -0.0027115138   0.12515914 
   32800    1.0096706  0.016385847   0.12527528 
   32900    1.0107507 -0.019302282   0.12589002 
   33000    1.0043551 0.0031065345   0.12598108 
   33100    1.0133589 -0.034622666   0.12635421 
   33200     1.008441 -0.007376237   0.12380176 
   33300    1.0070601  -0.03299835   0.12156787 
   33400    1.0106236  0.025899315   0.12126433 
   33500    1.0117141  0.012630213   0.12454949 
   33600    1.0103329 -0.030834697   0.12684359 
   33700    1.0088234  -0.01358566   0.12521193 
   33800    1.0095593 0.0015731431   0.12284593 
   33900    1.0121143  0.026382927   0.12229053 
   34000    1.0056168 -0.022440542   0.12082637 
   34100   0.99463355 -0.0066288442   0.11849116 
   34200    1.0149816  0.013307187   0.11660771 
   34300   0.99627817 -0.018323468   0.11554851 
   34400   0.99729617 -0.0033885703   0.11412517 
   34500    1.0057582 0.0021497908   0.11707288 
   34600    1.0080503  0.018452732   0.11796208 
   34700    1.0079527 0.0091424155   0.11870359 
   34800   0.99822514  0.031256075   0.11803608 
   34900    1.0071657 -0.040672819   0.11530801 
   35000   0.99863246 0.0042658113    0.1135653 
   35100   0.99743234 -0.038720138   0.11417073 
   35200    1.0082244  0.017271677   0.11204254 
   35300   0.99999315  0.033617726   0.11482878 
   35400    1.0137465  0.033245956   0.11740286 
   35500    1.0074946 0.0083578553   0.11868628 
   35600   0.99727067  0.002248959   0.11954291 
   35700    1.0092343  0.038129372   0.12142391 
   35800    1.0037394 -0.015184406   0.12566831 
   35900    1.0077088 0.0032641554   0.12614697 
   36000    1.0010502  0.017504577    0.1276236 
   36100      1.01251 -0.0088624387   0.12635713 
   36200     1.003213 -0.021482802    0.1279241 
   36300   0.99852059 -0.042658896    0.1239972 
   36400    1.0029299 -0.0069196863   0.12003276 
   36500    1.0029788 0.0072136704   0.12010488 
   36600    1.0074077  0.022889114   0.12368986 
   36700   0.99540045 -0.0010309008   0.12491442 
   36800    1.0111109   0.01468126   0.12830849 
   36900    1.0045048  0.052268789   0.12971704 
   37000    1.0128471 -0.0084113801   0.13208645 
   37100    1.0061939 -0.023153332   0.12879505 
   37200    1.0072143 -0.014195336   0.12966224 
   37300    1.0099611 -0.019721483   0.12961705 
   37400    1.0107497  0.026471891   0.12955016 
   37500    1.0039295 -0.0012532905   0.12743266 
   37600     1.017811 0.0029685233   0.12383008 
   37700    1.0075527  0.018917297   0.12523742 
   37800    1.0076121 -0.039690842    0.1234717 
   37900    1.0043581  -0.01962648   0.11892347 
   38000    1.0077336 0.0061283355   0.11758316 
   38100    1.0122192 -0.036383056   0.11693081 
   38200    1.0118571  0.044670068   0.11578344 
   38300    1.0114396  0.016739488   0.11834891 
   38400    1.0026132  0.031223271   0.12033098 
   38500   0.99631856  0.044814438   0.12420231 
   38600   0.99936829  0.012940765    0.1275436 
   38700     1.004467 -0.0035164411   0.13133175 
   38800    1.0030325 -8.3896887e-05   0.13073605 
   38900    1.0074581 -0.0075368059   0.13081688 
   39000      1.00317  0.003909243   0.13144371 
   39100    1.0072487  0.007095818   0.13117053 
   39200     1.005477 -0.015298055   0.12788081 
   39300    1.0043208   0.03911551   0.13142602 
   39400    1.0013542  0.023604334    0.1307026 
   39500    1.0083446 -0.0076630627   0.13209884 
   39600    1.0078683   0.04172106    0.1326564 
   39700     1.008516 0.0019779718    0.1356543 
   39800    1.0001915 -0.023799144   0.13649962 
   39900   0.99923791   0.01229674   0.13371474 
   40000    1.0032277  0.025527254    0.1359391 
   40100    1.0097363 -0.024809167   0.13588538 
   40200    1.0054427 0.0017780757   0.13559653 
   40300    1.0083013 -0.005746425   0.13428838 
   40400    1.0170458 -0.0018955724   0.13767574 
   40500    1.0144369  0.022790419   0.13887437 
   40600    1.0034818  0.017864384   0.13797234 
   40700    1.0075895 0.0084648378    0.1397167 
   40800    1.0003345 -0.0046590782   0.13986287 
   40900    1.0109462 -0.026925596   0.14167268 
   41000    1.0071442  0.027185446   0.13923622 
   41100    1.0052426 0.0060571612   0.14051513 
   41200    1.0106433 -0.0071569472   0.13936211 
   41300    1.0021377 -0.014627338   0.14097126 
   41400    1.0143081  -0.01889046   0.14015741 
   41500     1.013709 -0.024806013   0.13955611 
   41600    1.0078283  0.011699885   0.14343934 
   41700    1.0120086 0.0029843606   0.14415932 
   41800    1.0032795  0.012333408   0.14486002 
   41900    1.0116251  0.033875963   0.14670753 
   42000    1.0103782 0.0078208806   0.14892612 
   42100    1.0071705  0.013375746   0.14939483 
   42200    1.0126905 0.0049123066   0.15171813 
   42300    1.0138571 -0.022450664   0.14853026 
   42400    1.0066974 -0.030065034    0.1455449 
   42500    1.0096779 -0.018026727   0.14159569 
   42600    1.0106681 -0.011315994   0.14145194 
   42700      1.01266 0.0037251611   0.14282732 
   42800    1.0126782 -0.0086583209   0.13980204 
   42900    1.0067222  0.010646671   0.13458316 
   43000     1.011734  0.011102481   0.13586337 
   43100    1.0034768  0.001369679   0.13716507 
   43200    1.0067476  0.015125978   0.13836982 
   43300    1.0071104  0.018508945   0.13700971 
   43400    1.0040653 -0.0035096022   0.13639179 
   43500   0.99628446  0.016114604    0.1357355 
   43600     1.002792  0.038230931   0.13529996 
   43700    1.0088141 0.0033708285   0.13746427 
   43800    1.0029583  -0.03507812   0.13599088 
   43900    1.0106384 -0.012026453   0.13583537 
   44000    1.0070022 0.0011814741   0.13383767 
   44100    1.0069746 -0.0016529546   0.13487608 
   44200      1.00554 -0.010754865    0.1334544 
   44300   0.99550969  0.014752683   0.13460414 
   44400   0.99724593 -0.015892022   0.13455854 
   44500    1.0029109  0.001849273   0.13396022 
   44600    1.0050256 0.0096862686   0.13270281 
   44700    1.0125393 -0.0053350933   0.13234209 
   44800    1.0109301  0.010614208   0.13265047 
   44900    1.0012646  0.035819326   0.13591798 
   45000    1.0067908 -0.015313314   0.13679224 
   45100    1.0093689 -0.0031451377   0.13642811 
   45200    1.0024115 -0.025681385   0.13451339 
   45300    1.0082012  -0.03062689   0.13218135 
   45400    1.0078403  0.017144074   0.13279308 
   45500    1.0065149 -0.0044141366   0.13293103 
   45600   0.99519513 0.0054034484   0.13043771 
   45700   0.99411493  -0.01844201    0.1288675 
   45800    1.0006957 0.0048332704   0.12720796 
   45900    1.0094316 -0.012095249   0.12591018 
   46000     1.004077 -0.025732296   0.12553156 
   46100   0.99980346 -0.0060481525   0.12052635 
   46200    1.0047309  0.021151501   0.12371287 
   46300    0.9999414 -0.012791287   0.12322082 
   46400    1.0052472 0.0074118538   0.12085616 
   46500   0.99930028 -0.025377372   0.12119941 
   46600   0.99462772  -0.01878021   0.12046425 
   46700    1.0058846 -0.019911972    0.1175433 
   46800     1.011137  0.014971148   0.11353089 
   46900    1.0011796 0.0075146236   0.11292881 
   47000    1.0130714 0.0093919276   0.11352047 
   47100    1.0058026   0.01946768   0.11333705 
   47200    1.0044267 -0.040271385   0.11128443 
   47300   0.99791445 -0.010320199   0.11151525 
   47400    1.0074007 -0.013147292   0.11029642 
   47500    1.0095629 -0.030490755   0.11015633 
   47600     1.011376 0.0008886028   0.10961677 
   47700     1.007112 -0.048878155   0.10695202 
   47800    1.0067347 -0.001595807   0.10159967 
   47900    1.0111539 -0.013768495   0.10139188 
   48000    1.0117882 -0.023720056   0.10151814 
   48100    1.0078333 -0.023281904  0.098523464 
   48200     1.015736 0.00043912574   0.10185716 
   48300    1.0116386 -0.0087221002   0.10009961 
   48400    1.0140233 -0.0075994732  0.098685717 
   48500    1.0079774 -0.021848816   0.09785912 
   48600    1.0091389  -0.01827001  0.094189796 
   48700    1.0007359 -0.017412098  0.093096605 
   48800    1.0001948 -0.023996595  0.091605657 
   48900    1.0051906 -0.040909093  0.090707864 
   49000    1.0055251 -0.023371838  0.088043884 
   49100    1.0119298  0.012394122  0.088125412 
   49200    1.0081387  0.016122138  0.087556868 
   49300    1.0069444  0.014382984  0.087601505 
   49400     1.007388  0.012790294  0.087664559 
   49500    1.0003689 -0.020134276  0.087876627 
   49600    1.0092337  0.019936827  0.086889074 
   49700    1.0074515 -0.030528325  0.090383871 
   49800    1.0142657  0.031694185  0.089974058 
   49900    1.0109918 -0.00099074339  0.092382858 
   50000    1.0102424 0.0087389919  0.092997384 
   50100   0.99798835 -0.0015194906  0.093532045 
   50200   0.99831962 -0.032007428  0.093260546 
   50300    1.0186402 -0.031334955  0.087502747 
   50400    1.0068987 -0.016119281  0.081947816 
   50500    1.0108563 0.0047145481  0.084315556 
   50600    1.0080763  0.044469719  0.091050314 
   50700   0.99838129  0.020796219  0.091251311 
   50800    1.0025157 0.0048936315  0.093699291 
   50900    1.0036285  -0.01203985  0.095104269 
   51000    1.0053663 -0.046824714  0.090992554 
   51100    1.0068878 -0.0047242604  0.089067918 
   51200    1.0044499 0.0085306848  0.089710681 
   51300    1.0052101   0.03318224  0.089079417 
   51400    1.0104428  0.010688436  0.094385141 
   51500   0.99685726 -0.002807692   0.09485553 
   51600    1.0006496  0.019184206  0.094129592 
   51700    1.0050656  0.026292726  0.096479026 
   51800    1.0064634 -0.0074058021  0.094655542 
   51900    1.0000502 -0.012872867  0.094311041 
   52000   0.99726482 -0.017636697  0.092536392 
   52100   0.99664992 -0.018669888  0.087839799 
   52200    1.0096667 0.0021214049  0.085928157 
   52300      1.00656 -0.025831984  0.084267862 
   52400     1.004204  0.019049181  0.083166908 
   52500   0.99647809  0.017272567  0.086708583 
   52600     1.003978 0.0039826394  0.087702533 
   52700    1.0079015 -0.0072480411  0.088169882 
   52800    1.0090337 -0.020193033  0.087429316 
   52900   0.99972222 0.0081220046   0.08852312 
   53000   0.99631492  0.016955596   0.09291429 
   53100    1.0077388 -0.0093296936  0.093242328 
   53200    1.0027284 -0.0038990894  0.093524096 
   53300    0.9974455  0.015246107  0.093917375 
   53400    1.0111699 0.0050447415  0.094480931 
   53500    1.0105174  0.022332207  0.093008411 
   53600    1.0050169  0.011811176  0.095860207 
   53700   0.99048084 0.0090020284  0.095507591 
   53800     1.002916  0.035853347  0.096510376 
   53900    1.0016017 -0.0033454918  0.096478961 
   54000     1.006114 -0.0040653965  0.096023597 
   54100   0.99920002  -0.01584766  0.097113492 
   54200    1.0016034  0.017121837  0.095590651 
   54300    1.0081457 -0.010106918  0.097806369 
   54400    1.0000191  0.010351285   0.09689488 
   54500    1.0087946  0.011895874  0.098601198 
   54600     1.019064  0.017562397  0.096796861 
   54700   0.99885226 -0.014057919  0.099849123 
   54800    1.0030443 -0.0019014253  0.097463483 
   54900    1.0020353  0.019163809  0.095541589 
   55000    1.0081638 -0.033755519  0.092788387 
   55100    1.0051608   0.01910151  0.094726383 
   55200    1.0049914 0.0087837069  0.093443874 
   55300    1.0082441 -0.010238641  0.093345016 
   55400     1.005855 -0.0050423713  0.092049141 
   55500    1.0036284 0.0083214817  0.092706681 
   55600    1.0027694 0.0060742071  0.090084526 
   55700    1.0027772   0.02059226  0.091110024 
   55800    1.0059743 -0.0042500547  0.089541564 
   55900    1.0095339  -0.01546134  0.089121181 
   56000    1.0071033 0.0022205317  0.090810073 
   56100    1.0016894 0.0026248335   0.09181683 
   56200    1.0008147 0.0013371505  0.088408287 
   56300    1.0044475  0.023237932  0.087593218 
   56400    1.0068703 -0.0013878025  0.089169575 
   56500    1.0067105 0.0040633362  0.089685063 
   56600     1.010029  0.023590458  0.090603645 
   56700   0.99934588   0.04415091   0.09342537 
   56800    1.0056659 0.0033152374  0.092255588 
   56900    1.0097012 0.0067416437  0.094552502 
   57000    1.0031712  -0.01593695  0.092686308 
   57100    1.0019106 0.0087305907  0.091608241 
   57200    1.0098596  0.021304618  0.093516611 
   57300    1.0065037 -0.035867289  0.093034704 
   57400    1.0113884  -0.01580267  0.090643687 
   57500    1.0035891 -0.0022262541  0.092510842 
   57600    1.0048043 0.0050896945  0.095521614 
   57700    1.0024668 -0.048855214  0.098169997 
   57800    1.0065723 -0.0070790402  0.096996126 
   57900    1.0075996 -0.022725163  0.094501083 
   58000      1.00881  0.011850006  0.091815765 
   58100    1.0044757 -0.0098426403  0.090629901 
   58200    1.0041862  0.033434012  0.091895522 
   58300    1.0088244  0.008862547  0.090006485 
   58400   0.99903412 -0.0042092721  0.087885203 
   58500    1.0079175  0.037333435  0.089691824 
   58600    1.0121707   0.02239922  0.090351855 
   58700      1.00607  -0.02107937  0.093448229 
   58800   0.99238986  0.014658939  0.095396012 
   58900     1.006862 0.00058779149  0.093791169 
   59000    1.0082084 -0.026746122  0.092253627 
   59100    1.0002326  0.011997873    0.0893068 
   59200    1.0126955  0.015896449  0.091471958 
   59300    1.0123174  0.027892481  0.092769335 
   59400   0.99990081 0.0050577901    0.0927072 
   59500    1.0155042 -0.011815245  0.092032688 
   59600    1.0154491 -0.004404648  0.091120159 
   59700    1.0065585 -0.015098697   0.09047925 
   59800   0.99903162 -0.025319832  0.088609613 
   59900    1.0032319 -0.016033922  0.088447587 
   60000   0.99494069 -0.014174969  0.089729481 
   60100     1.013047 -0.00049625164   0.09133616 
   60200    1.0073606 0.0077720886  0.093137307 
   60300   0.99924006 0.0061573298  0.093501775 
   60400    1.0032761 -0.020435291   0.08889141 
   60500    1.0079329 -0.00083103652  0.088112091 
   60600    1.0138949 -0.0053220952  0.087575193 
   60700    1.0038297 -0.018609344  0.088090442 
   60800    1.0140921 -0.0084013884  0.085711985 
   60900    1.0103641  0.013130765  0.085393715 
   61000      1.00877  0.015192924   0.08879941 
   61100    1.0027942  0.008860841  0.087932896 
   61200    1.0035232  0.021006259  0.088322724 
   61300    1.0083383  0.017974302  0.089457931 
   61400    1.0005452  0.015173038  0.089824572 
   61500     1.001799 -0.00064118413  0.088450021 
   61600    1.0095929 -0.011509751  0.087230692 
   61700    1.0066721 -0.017082862  0.084783381 
   61800    1.0049462 -0.008130453  0.086251013 
   61900    1.0086075 -0.016015921  0.084378955 
   62000    1.0072156  0.015187753  0.085592657 
   62100   0.99998039 -0.020557707  0.087420238 
   62200    1.0089939 -0.026846015  0.084243975 
   62300    1.0074951  0.023465006  0.082740533 
   62400     1.004946  0.022552324  0.085779741 
   62500    1.0092275 0.00082973533  0.085969198 
   62600    1.0089239   0.01713364  0.088369126 
   62700    1.0111895  0.027430861  0.089376207 
   62800     1.016546   0.03694549  0.091217967 
   62900    1.0106025  0.034689328  0.096359328 
   63000    1.0095677  0.018509547   0.10182335 
   63100    1.0064684 -0.0015095956    0.1019301 
   63200    1.0070854  0.017847357   0.10212986 
   63300    1.0022686  0.013860458   0.10460136 
   63400    1.0028936 0.0054153453    0.1068226 
   63500     1.000244 0.0063840654   0.10871447 
   63600     1.001983 -0.0088812514   0.11055698 
   63700    1.0084157 -0.0051777894   0.11188025 
   63800    1.0049765 -0.015031853   0.11171189 
   63900    1.0038336 -0.018109138   0.10923371 
   64000   0.99853297  0.023343322   0.10947708 
   64100    1.0051347 -0.013383757   0.11161183 
   64200    1.0027006 0.0092411039   0.10933468 
   64300    1.0010621  0.010106779   0.11224099 
   64400    1.0083878  0.018386606    0.1122606 
   64500    1.0024508  0.026248334   0.11529215 
   64600    1.0100617 -0.011055415   0.11953907 
   64700    1.0028803 -0.0089808318   0.12051955 
   64800    1.0182607  0.011231925   0.11811865 
   64900    1.0163615 -0.026466028   0.11731248 
   65000    1.0119376 -0.00045540617   0.11709667 
   65100    1.0089061 -0.012635356   0.11590053 
   65200    1.0049767  0.020338248   0.11771052 
   65300    1.0145833  0.028632054   0.11880178 
   65400      1.01818 -0.027805662   0.11644267 
   65500   0.99997619 0.0080362888   0.11617742 
   65600      1.01042  0.015538488    0.1164959 
   65700    1.0074471 0.0097516137   0.11621933 
   65800    1.0084127 -0.010881347   0.11381289 
   65900   0.99941397  0.025542466   0.11316306 
   66000    1.0167374 -0.00044615842   0.11527723 
   66100    1.0112724 -0.019771728   0.11541344 
   66200    1.0031527 -0.0094782672   0.11668956 
   66300    1.0171176 -0.0095558777   0.11374084 
   66400    1.0045151 -0.0011085482   0.11558356 
   66500    1.0038636  0.024757725   0.11807496 
   66600    1.0013181 -0.013687656   0.11912766 
   66700     1.000024  0.030799808   0.12148903 
   66800    1.0042049 -0.0062348734   0.12308598 
   66900    1.0078616  -0.01103351   0.12225153 
   67000    1.0044799 -0.012641352   0.12121655 
   67100    1.0063452 0.0039898678   0.11985399 
   67200    1.0110225 -0.00085705735   0.12120582 
   67300    1.0025011  0.011943482   0.11918563 
   67400    1.0040735 -0.011341662   0.11714779 
   67500    1.0116158 0.0093463896     0.121705 
   67600    1.0060425  0.026764051   0.12261012 
   67700    1.0054851 -0.033120252   0.12124037 
   67800    1.0008004 -0.0082160201   0.12352221 
   67900    1.0048534 0.0085633841   0.12401806 
   68000   0.99815712 0.0035411897   0.12393862 
   68100    1.0006952 -0.017010347    0.1208819 
   68200    1.0032911 -0.032021861   0.12015006 
   68300   0.99844326  0.045009087    0.1153318 
   68400    1.0083666  0.042605485   0.12114578 
   68500    1.0017581 0.00059479619   0.12167935 
   68600   0.99828315 0.0064577771   0.12199391 
   68700    1.0101074 -0.006179172   0.12076942 
   68800   0.99530011 0.0092836932   0.12239681 
   68900   0.99340084  0.018270304   0.12143517 
   69000   0.99637642 -0.032586927   0.12178036 
   69100    1.0047997 0.0059126971   0.12112662 
   69200    1.0128579 0.0013988795    0.1220264 
   69300    1.0032351  -0.01878841   0.11964901 
   69400    1.0030787 0.0066075067   0.12035346 
   69500    1.0018454 0.0025750848   0.12154317 
   69600     1.002261  0.025574913   0.12150216 
   69700    1.0108786  0.011153801   0.12199578 
   69800    1.0171161 0.0086654914   0.12317567 
   69900    1.0042163  0.020033062   0.12526261 
   70000    1.0054741  0.040334915     0.126576 
   70100    1.0126313 -0.022804298   0.12830973 
   70200   0.99918238 0.0016289964   0.12799317 
   70300    1.0166663 -0.0078200898   0.12914226 
   70400     1.004808 -0.014830559   0.12615389 
   70500    1.0049057 -0.0078086055   0.12776997 
   70600    1.0087157 0.0036732327   0.12787477 
   70700    1.0062703   0.03025654    0.1293918 
   70800    1.0112453 -0.029023605   0.12608684 
   70900   0.99447071 -0.020965136   0.12159587 
   71000     1.003698 -0.010754977   0.12094578 
   71100    1.0132354 -0.017520111   0.11999491 
   71200    1.0058673 0.0044012362   0.12066572 
   71300    1.0096722  0.033560546   0.12045163 
   71400    1.0131784 -0.012231671   0.12219851 
   71500    1.0082248  0.023572438   0.12208448 
   71600    1.0066277 -0.0038231012   0.12341956 
   71700    1.0095825 -0.010959069   0.12354598 
   71800    1.0142825 -0.013815396   0.12073089 
   71900    1.0056825 -0.026250664   0.11988971 
   72000    1.0066792 -0.0078354538   0.11938589 
   72100    1.0079858  0.019522522   0.11518192 
   72200    1.0113069  0.039176511   0.11810935 
   72300    1.0046697 -0.0054414706   0.12133909 
   72400    1.0110544  0.018045403   0.11933577 
   72500    1.0050961 -0.0022358594    0.1203225 
   72600     1.011617  0.026328231   0.12203091 
   72700    1.0068235  0.030499229   0.12358858 
   72800    1.0067856 -0.0061616414   0.12667339 
   72900    1.0074167   0.00289154   0.12748653 
   73000    1.0003242 -0.009112815   0.12737044 
   73100   0.99362915  0.022779876   0.12870037 
   73200    1.0050086 -0.017756191   0.12908364 
   73300     1.002036 -0.00017588297   0.12618947 
   73400   0.99554264 -0.049855434   0.12207345 
   73500   0.99860581  0.020557433   0.12065843 
   73600    1.0084759 -0.043286322   0.11872038 
   73700     1.009755  0.041012026   0.11822967 
   73800     1.010651 -0.0040513828   0.11818339 
   73900    1.0094719 -0.016658141   0.12093663 
   74000    1.0049678 -0.016556615   0.12163825 
   74100    1.0079499    0.0334322   0.12393966 
   74200    1.0107992  0.022586359   0.12996514 
   74300    1.0079338 -0.013735522   0.13203119 
   74400    1.0097032 -0.0055116007   0.13246801 
   74500    1.0080496 0.0043450113   0.13391728 
   74600   0.99989873  0.010839461    0.1320794 
   74700   0.99480325 -0.036492828   0.13367683 
   74800   0.99883503  0.009273044   0.13379531 
   74900    1.0114827 -0.020634425     0.131829 
   75000    1.0133631  0.014323961   0.13338941 
   75100    1.0047312 -0.023105142   0.13434096 
   75200    1.0085476  -0.02188853   0.13171804 
   75300    1.0073436 0.0067573494   0.13031167 
   75400     1.006572 0.0059287921   0.12856239 
   75500     1.016191 -0.034354093   0.12882307 
   75600    1.0175065 0.0068134426   0.12767587 
   75700    1.0018993 -0.026157435   0.12573519 
   75800      1.00676 -0.027591728   0.12161484 
   75900    1.0043191 -0.016294563   0.11590062 
   76000     1.004466  -0.03279493   0.11532543 
   76100    1.0058936 -0.0043143671   0.11410305 
   76200    1.0011438 0.0044352535   0.11866831 
   76300    1.0060151 0.0082756353   0.12224024 
   76400    1.0042972  0.010527177   0.12449502 
   76500    1.0110675  -0.02776286   0.12334453 
   76600    1.0092932  0.017225334   0.12213853 
   76700    1.0049194  0.014194171   0.12266041 
   76800    1.0028626 -0.027905933   0.12124225 
   76900    1.0147556 -0.044691291   0.11747476 
   77000    1.0085267 -0.015822051   0.11337113 
   77100    1.0166017 -0.017099134   0.11140972 
   77200    1.0104507 -0.026882453   0.11099287 
   77300    1.0041879 0.0046901756   0.10800921 
   77400    1.0139007 -0.011929863   0.10594105 
   77500     1.002775 0.0062106454   0.10437902 
   77600     1.008186  0.028052874   0.10309758 
   77700    1.0138122 -0.014026837    0.1038675 
   77800      1.00818  0.022303971    0.1035091 
   77900    1.0113554 -0.004507806   0.10581707 
   78000    1.0047911  0.021538073    0.1037631 
   78100    1.0092431 -0.0050633816   0.10275391 
   78200    1.0117849  0.021673988   0.10339227 
   78300    1.0034644 -0.028562026   0.10206818 
   78400    1.0016967 0.0031132268   0.10097929 
   78500    1.0079155 -0.0016539684  0.099017418 
   78600    1.0138094  0.025076823  0.098362933 
   78700    1.0163789 -0.0041097263   0.10295396 
   78800    1.0107281  0.037276372   0.10639219 
   78900    1.0012397  0.017129369   0.10985354 
   79000    1.0121245 0.0035695387   0.10873463 
   79100    1.0135303 -0.0087917798   0.10996439 
   79200    1.0109193 -0.0068201498    0.1088252 
   79300    1.0051777 0.0082081445   0.10999689 
   79400    1.0108031 0.0014502114   0.11003408 
   79500    1.0150948 0.0095414782   0.11234958 
   79600     1.014827 -0.0060941292   0.11071204 
   79700    1.0040865  0.010822582   0.11302103 
   79800    1.0024329  0.044050192   0.11536722 
   79900    1.0155445  0.026473765   0.11810923 
   80000    1.0078731 -0.0075576314   0.11916646 
   80100   0.99708278 0.0015799196   0.11766182 
   80200    1.0022528 -0.020858073   0.11512251 
   80300    1.0048194 -0.023555094   0.11315164 
   80400    1.0136386  0.014503456   0.11480976 
   80500    1.0110434  0.042136817   0.11533523 
   80600    1.0068685 -0.0086923134   0.11759999 
   80700   0.99968806 0.0071555473   0.11882438 
   80800    1.0028453 -0.023079858   0.11798659 
   80900    1.0059059 -0.010057199   0.11497315 
   81000   0.99947956 0.0075556594   0.11710546 
   81100   0.99517922 0.0055440848   0.11589735 
   81200    1.0055354 0.0078113493   0.11610256 
   81300    1.0060134  0.028102285   0.11935425 
   81400   0.99814521 -0.0046857908   0.11901608 
   81500    1.0020361  0.029668355   0.12075428 
   81600    1.0106327 0.0084402384   0.12354332 
   81700    1.0072789  0.017533972   0.12326647 
   81800    1.0036015 0.0031815956   0.12783349 
   81900     1.018637  0.045087643   0.12955252 
   82000    1.0047253  0.022897749   0.13395547 
   82100    1.0133059  0.029860774   0.13484961 
   82200    1.0103522 -0.027568394   0.13342527 
   82300    1.0125572 -0.005403224   0.13233476 
   82400    1.0167252 -0.016181732   0.13083644 
   82500    1.0110009 0.0061691365   0.13155604 
   82600    1.0093037 -0.0048531154   0.12992467 
   82700   0.99998346  0.017081091   0.13098954 
   82800    1.0008109  0.028910293   0.13281649 
   82900    1.0088411 -0.0039171442   0.13375317 
   83000    1.0034168 -0.018783024   0.13260957 
   83100    1.0036141  0.012071321   0.12980793 
   83200   0.99917977 0.0011628381   0.12670759 
   83300    1.0025092 -0.0053717857   0.12741077 
   83400    1.0087216 -0.027877719   0.12670794 
   83500    1.0065372  0.001978012   0.12582278 
   83600    1.0072327 -0.0081601456   0.12403138 
   83700    1.0133617 0.0094636078     0.123636 
   83800    1.0043628 -0.0027527957   0.12381559 
   83900    1.0091982 -0.012347063   0.12306127 
   84000    1.0098358 -0.011142077    0.1195253 
   84100    1.0041143 -0.019078033   0.11695305 
   84200    1.0054257 -0.013851445    0.1136509 
   84300    1.0096573  0.000182729   0.11352227 
   84400    1.0076898 -0.0084737805   0.11600203 
   84500    1.0020044  0.021509264   0.11351852 
   84600    1.0105414  0.027501589   0.11674858 
   84700     1.004157  0.027989696     0.120466 
   84800    1.0039431 0.0026483556   0.11830612 
   84900   0.99876913 0.0061987818   0.11791363 
   85000   0.99997284  0.012296885   0.11665821 
   85100    1.0123075 -0.0054918493   0.11617558 
   85200    1.0096474 -0.011062295    0.1143381 
   85300    1.0185325  0.004572813   0.11232491 
   85400   0.99964344 -0.0039250721   0.11016945 
   85500    1.0061697 0.00069693118   0.11169866 
   85600    1.0120823 -0.007896976    0.1124047 
   85700    1.0049863  0.008691204   0.11113335 
   85800    1.0051447 -0.016566766   0.11034776 
   85900   0.99963893  -0.01386994    0.1115967 
   86000    1.0005506  -0.01517773   0.11128339 
   86100     1.001578 -0.029199526   0.10886335 
   86200    1.0159591 0.0030570781   0.10436738 
   86300    1.0047966 0.0043325212   0.10502423 
   86400    1.0019699 -0.0018362198   0.10469435 
   86500   0.99625646  0.011206604   0.10367339 
   86600     1.001764 -0.0062857866   0.10592931 
   86700    1.0038123 -0.029488662   0.10169666 
   86800    1.0007875  -0.01072693   0.10224614 
   86900    1.0123771 -0.034159563   0.10048757 
   87000     1.003898  0.015449891  0.096890359 
   87100    1.0093604 -0.0094385037  0.096244983 
   87200    1.0039609 -0.028635783  0.092071263 
   87300    1.0006222  0.014726589  0.090134961 
   87400    1.0032972 -0.013797888  0.090617262 
   87500    1.0080056 0.0013124513  0.090991451 
   87600    1.0016413 0.0065490198  0.090178493 
   87700     1.008941   0.02232764  0.090062482 
   87800    1.0061115 -0.014528468  0.089258954 
   87900   0.99794642 -0.017657864  0.086961549 
   88000   0.99777436 -0.0057706022  0.086964875 
   88100    1.0117202 -0.0091976396  0.087583174 
   88200    1.0004787   0.02186333  0.088318557 
   88300    1.0013848 -0.0051387847  0.088601574 
   88400    1.0086115 0.00033866212  0.088533914 
   88500    1.0011455 -0.019656256  0.088124634 
   88600    1.0081211  0.017341111  0.085854612 
   88700    1.0005407  0.042309473  0.090613805 
   88800    1.0041047   0.03686197  0.095680196 
   88900    1.0067379 0.0010320776   0.09849488 
   89000     1.007563 0.0021905553  0.098413666 
   89100    1.0112271  0.022238912   0.10392729 
   89200    1.0025755  0.009228959   0.10410179 
   89300    1.0016034 -0.0018832062   0.10398889 
   89400    1.0104681 0.0067707074   0.10254223 
   89500     0.996741  0.022773096   0.10441312 
   89600    1.0015408   0.02309364    0.1054511 
   89700    1.0064962  -0.01807997   0.10424764 
   89800    1.0055357 0.0065242985   0.10520668 
   89900    1.0107031  0.002249442   0.10273558 
   90000    1.0088701 0.0085941451   0.10464821 
   90100    1.0115265 -0.0052480178   0.10422525 
   90200    1.0059955 -0.0011106032   0.10916441 
   90300    1.0142975 -0.013528592   0.11062065 
   90400    1.0044651 -0.0089117761    0.1093848 
   90500   0.99939504  0.018216536   0.10974577 
   90600   0.99569049 -0.017327876   0.10573624 
   90700    1.0072802 -0.012269205   0.10576663 
   90800    1.0118228 -0.012909435   0.10707346 
   90900   0.99809972 -0.010201729   0.10465846 
   91000    1.0102123 -0.0045298427   0.10625203 
   91100    1.0093497  0.027997246   0.10823084 
   91200   0.99949529   0.01787412   0.10765392 
   91300    1.0002344 -0.022761766   0.10865021 
   91400    1.0057074  -0.01305351   0.10579211 
   91500     1.004222 -0.012391325   0.10369761 
   91600    1.0038288  0.016137325   0.10438131 
   91700    1.0061676 -0.0065727389   0.10411476 
   91800    1.0077526 0.00084598576   0.10453117 
   91900    1.0062728 -0.026741423   0.10203174 
   92000    1.0083818 -0.035598742  0.098985299 
   92100    1.0046335 -0.006264528  0.099526466 
   92200    1.0076655 0.0037107236   0.10113695 
   92300    1.0036357 -0.0047314957  0.096622552 
   92400     1.015204 -0.0043544171  0.096515694 
   92500    1.0060734  0.027846354  0.096362874 
   92600    1.0005423 -0.014991381  0.095622384 
   92700    1.0073333 -0.013221079    0.0950302 
   92800    1.0090333  0.012774312  0.094018028 
   92900   0.99785267  0.030831859  0.095859706 
   93000   0.99438288 -0.0094098324  0.095733065 
   93100   0.99645845 -0.018415246  0.094892406 
   93200    1.0098108 -0.039968218  0.095182817 
   93300    1.0136424 -0.017356411   0.09284427 
   93400     1.014533 0.0070817422  0.094127118 
   93500    1.0092879 -0.021090722  0.094339396 
   93600    1.0098734  0.013506497  0.096747555 
   93700    1.0147115 0.0031235367   0.10011329 
   93800    1.0099309  0.045553227   0.10257242 
   93900    1.0076394  0.036074209   0.10873424 
   94000    1.0072215 -0.019919112   0.10927261 
   94100     1.008173 -0.016355369   0.10821892 
   94200    1.0065048   0.01647752   0.10673461 
   94300    1.0048138 -0.027183218   0.10909385 
   94400   0.99847738 0.0023968112   0.10864301 
   94500    1.0079137  0.015575394   0.11163372 
   94600    1.0143427  0.017896348   0.11118868 
   94700    1.0014124 -0.0078761655   0.11061312 
   94800    1.0113942  0.019746648   0.10969609 
   94900    1.0006156  0.011134867   0.11168747 
   95000    1.0061464 -0.016321168   0.10949287 
   95100    1.0044859 -0.0043474851   0.11097825 
   95200    1.0024333  0.016309868   0.11315919 
   95300   0.99449768  0.034441704   0.11335739 
   95400     1.003363 -0.0094755614   0.11533427 
   95500    1.0059944  0.018745292   0.11756693 
   95600    1.0039604 -0.025251717   0.11460233 
   95700    1.0068079  0.013931125   0.11571498 
   95800     1.011243 -0.025312802   0.11589828 
   95900    1.0018924 -0.024248093   0.11141232 
   96000    1.0053416 -0.029383349   0.10353556 
   96100     1.011066 0.0058945118   0.10433958 
   96200    1.0108426 -0.024997929   0.10246967 
   96300      1.01365 -0.024491714    0.1004902 
   96400    1.0105524  0.023281915  0.099141815 
   96500   0.99870169 -0.0067879895  0.099264196 
   96600    1.0141628 -0.052735455   0.09282525 
   96700    1.0113214 -0.0014190758  0.087658782 
   96800    1.0057378 -0.013772547  0.087014121 
   96900    1.0016178 -0.011656989  0.086123289 
   97000    1.0015414  0.011362069  0.086254356 
   97100    1.0036437  0.022790096  0.090338094 
   97200     1.003505 0.0084742222  0.091093431 
   97300    1.0146014 -0.0028857212  0.092547089 
   97400    1.0043914  0.035864902  0.096874029 
   97500    1.0062828 0.0079641019  0.097539957 
   97600     1.008026 0.0095688965  0.098613597 
   97700    1.0009268 -0.023050763  0.097749697 
   97800    1.0100741 -0.022786996  0.094590316 
   97900    1.0073462  0.013203923  0.094815909 
   98000    1.0069865 0.0026132343  0.096730825 
   98100    1.0106211 -0.011585322  0.095090731 
   98200   0.99778807  -0.02434868  0.094647055 
   98300    1.0095421  0.032532199  0.094949115 
   98400    1.0064471  0.029891744   0.09427363 
   98500    1.0005173 0.0074371912  0.095437402 
   98600    1.0073879  0.014046298  0.095204112 
   98700    1.0182028  0.024081016  0.098349287 
   98800     1.018036  0.048821597   0.10291392 
   98900    1.0126727 -0.019367542   0.10483118 
   99000    1.0051396 -0.021668719   0.10843067 
   99100    1.0044218  -0.03264994   0.10649937 
   99200    1.0053082 -8.2197889e-05   0.10440176 
   99300    1.0075841  0.020493573    0.1029663 
   99400    1.0040253 -0.011910003   0.10204712 
   99500    1.0063231 -0.014014412  0.098885867 
   99600    1.0018439 -0.030369859  0.095533026 
   99700    1.0084152  0.014852009  0.095687305 
   99800   0.99647728  0.014045343  0.096978836 
   99900    1.0089806 -0.013848805   0.10066267 
  100000    1.0092031  0.029875253   0.10021251 
Loop time of 481.939 on 1 procs for 100000 steps with 8000 atoms

Performance: 89637.917 tau/day, 207.495 timesteps/s
98.8% CPU use with 1 MPI tasks x no OpenMP threads

MPI task timing breakdown:
Section |  min time  |  avg time  |  max time  |%varavg| %total
---------------------------------------------------------------
Pair    | 311.95     | 311.95     | 311.95     |   0.0 | 64.73
Neigh   | 145.84     | 145.84     | 145.84     |   0.0 | 30.26
Comm    | 7.5932     | 7.5932     | 7.5932     |   0.0 |  1.58
Output  | 0.25278    | 0.25278    | 0.25278    |   0.0 |  0.05
Modify  | 12.156     | 12.156     | 12.156     |   0.0 |  2.52
Other   |            | 4.14       |            |       |  0.86

Nlocal:    8000 ave 8000 max 8000 min
Histogram: 1 0 0 0 0 0 0 0 0 0
Nghost:    7199 ave 7199 max 7199 min
Histogram: 1 0 0 0 0 0 0 0 0 0
Neighs:    217310 ave 217310 max 217310 min
Histogram: 1 0 0 0 0 0 0 0 0 0

Total # of neighbors = 217310
Ave neighs/atom = 27.1638
Neighbor list builds = 14405
Dangerous builds = 0
Total wall time: 0:08:25
