LAMMPS (7 Aug 2019)
Lattice spacing in x,y,z = 1.18563 1.18563 1.18563
Created orthogonal box = (0 0 0) to (23.7126 23.7126 23.7126)
  1 by 1 by 1 MPI processor grid
Created 8000 atoms
  create_atoms CPU = 0.00097394 secs
Neighbor list info ...
  update every 1 steps, delay 0 steps, check yes
  max neighbors/atom: 2000, page size: 100000
  master list distance cutoff = 2.8
  ghost atom cutoff = 2.8
  binsize = 1.4, bins = 17 17 17
  1 neighbor lists, perpetual/occasional/extra = 1 0 0
  (1) pair lj/cut, perpetual
      attributes: half, newton on
      pair build: half/bin/atomonly/newton
      stencil: half/bin/3d/newton
      bin: standard
Setting up Verlet run ...
  Unit style    : lj
  Current step  : 0
  Time step     : 0.005
Per MPI rank memory allocation (min/avg/max) = 4.232 | 4.232 | 4.232 Mbytes
Step Temp E_pair E_mol TotEng Press 
       0            1   -4.0738092            0   -2.5739967   -2.3602171 
    1000    1.0061151   -3.8973236            0   -2.3883396  0.060605752 
    2000    1.0207496   -3.8910681            0   -2.3601351   0.12844856 
    3000   0.99709252   -3.8789217            0   -2.3834699   0.10318624 
    4000   0.99048746   -3.9039443            0   -2.4183988  0.076806326 
    5000    1.0053112   -3.8934634            0    -2.385685   0.13271823 
Loop time of 22.2866 on 1 procs for 5000 steps with 8000 atoms

Performance: 96919.438 tau/day, 224.351 timesteps/s
99.5% CPU use with 1 MPI tasks x no OpenMP threads

MPI task timing breakdown:
Section |  min time  |  avg time  |  max time  |%varavg| %total
---------------------------------------------------------------
Pair    | 14.352     | 14.352     | 14.352     |   0.0 | 64.40
Neigh   | 6.3848     | 6.3848     | 6.3848     |   0.0 | 28.65
Comm    | 0.32299    | 0.32299    | 0.32299    |   0.0 |  1.45
Output  | 0.00012589 | 0.00012589 | 0.00012589 |   0.0 |  0.00
Modify  | 1.0422     | 1.0422     | 1.0422     |   0.0 |  4.68
Other   |            | 0.184      |            |       |  0.83

Nlocal:    8000 ave 8000 max 8000 min
Histogram: 1 0 0 0 0 0 0 0 0 0
Nghost:    7096 ave 7096 max 7096 min
Histogram: 1 0 0 0 0 0 0 0 0 0
Neighs:    217350 ave 217350 max 217350 min
Histogram: 1 0 0 0 0 0 0 0 0 0

Total # of neighbors = 217350
Ave neighs/atom = 27.1687
Neighbor list builds = 677
Dangerous builds = 0
Setting up Verlet run ...
  Unit style    : lj
  Current step  : 0
  Time step     : 0.005
Per MPI rank memory allocation (min/avg/max) = 5.917 | 5.917 | 5.917 Mbytes
Step Temp c_msd[4] v_twopoint v_fitslope 
       0    1.0053112 3.8830416e-28 6.471736e-23 3.3333333e+20 
     100    1.0082882   0.32245655    0.1074853   0.11209751 
     200     1.005765   0.76683072   0.12780499   0.13365332 
     300    1.0150665    1.2524372    0.1391596   0.14466464 
     400    1.0040267    1.7428564   0.14523796   0.15134853 
     500    1.0022418    2.2352957   0.14901965   0.15489553 
     600    1.0128458    2.7353943    0.1519663   0.15757855 
     700    1.0097707    3.2359597   0.15409327   0.15945694 
     800    1.0081015    3.7312053   0.15546685   0.16071834 
     900    1.0028753    4.2445997   0.15720736   0.16184844 
    1000    1.0112795    4.7693263   0.15897751   0.16299889 
    1100     1.003128    5.3181765   0.16115683   0.16439108 
    1200    1.0074957    5.8430826   0.16230782   0.16577374 
    1300    1.0081617    6.3470901   0.16274588   0.16672821 
    1400    0.9971772    6.8799115   0.16380739   0.16753325 
    1500   0.99749244    7.3955659   0.16434589   0.16819135 
    1600    1.0043606    7.9047709   0.16468271   0.16875063 
    1700   0.99712654    8.3989687   0.16468564   0.16904488 
    1800    1.0133489    8.9124297   0.16504498   0.16925307 
    1900    1.0084761    9.4336442   0.16550251    0.1694745 
    2000    1.0088789    9.9319122   0.16553185   0.16962612 
    2100     1.002813    10.439195   0.16570149   0.16970678 
    2200    1.0001925     10.96203   0.16609135   0.16984362 
    2300    1.0018966    11.416582    0.1654577   0.16982566 
    2400    1.0106727     11.94104   0.16584776   0.16974271 
    2500    1.0167006    12.433585   0.16578111   0.16969247 
    2600    1.0070321       12.967   0.16624358   0.16967637 
    2700    1.0167193    13.528488   0.16701836   0.16975453 
    2800    1.0119336    14.049593   0.16725705     0.169878 
    2900    1.0088351    14.560129   0.16735779   0.17000556 
    3000    1.0069249    15.032568   0.16702852   0.17005002 
    3100    1.0116607    15.586572   0.16759754   0.17011072 
    3200    1.0142755     16.16697   0.16840593   0.17027968 
    3300     1.014456    16.712786   0.16881601   0.17050765 
    3400    1.0154515    17.211471    0.1687399    0.1707074 
    3500    1.0105411    17.693546   0.16850995   0.17084667 
    3600    1.0036784    18.149873   0.16805437   0.17090906 
    3700    1.0001607    18.647526   0.16799572    0.1708859 
    3800    1.0088278    19.140155   0.16789608    0.1708426 
    3900    1.0138475    19.647722   0.16792924   0.17080555 
    4000    1.0059737    20.138603   0.16782168    0.1707625 
    4100    1.0089769    20.641475   0.16781686   0.17068216 
    4200    1.0036111    21.219277   0.16840695   0.17066292 
    4300    1.0080081    21.720682   0.16837737   0.17067478 
    4400    1.0075729    22.146702   0.16777804   0.17063099 
    4500    1.0140106    22.639919    0.1677031    0.1705487 
    4600    1.0075976    23.179551   0.16796775   0.17046156 
    4700    1.0143667    23.818048   0.16892232   0.17047227 
    4800    1.0096824    24.374002    0.1692639   0.17055021 
    4900    1.0024179    24.915838   0.16949549   0.17066023 
    5000    1.0038789    25.429986   0.16953323   0.17075645 
    5100    1.0012156    25.997048   0.16991534   0.17087482 
    5200   0.99428299    26.510795   0.16994099   0.17100261 
    5300   0.99997038    27.029817   0.16999884   0.17110568 
    5400     1.001166     27.59832   0.17035999   0.17123014 
    5500    1.0117525    28.216817     0.171011   0.17138245 
    5600    1.0032155    28.765876   0.17122545   0.17156435 
    5700    1.0015106    29.316778   0.17144314   0.17174669 
    5800    1.0068645    29.845238   0.17152435   0.17192654 
    5900    1.0014461    30.400713   0.17175544   0.17210346 
    6000   0.99419537    30.966152   0.17203417   0.17229341 
    6100    1.0060877    31.461449   0.17192048   0.17246921 
    6200    1.0059571    31.969834   0.17188082   0.17261685 
    6300    1.0085607    32.511112   0.17201646   0.17275647 
    6400    1.0080122    33.091711   0.17235266   0.17291297 
    6500    1.0164756    33.556862   0.17208647   0.17304379 
    6600   0.99724686    34.135561   0.17240182   0.17316775 
    6700   0.99853497    34.663053     0.172453   0.17330076 
    6800    1.0026925    35.225014   0.17267163   0.17342932 
    6900    1.0055721    35.729542   0.17260648   0.17355264 
    7000     1.014246     36.18805   0.17232404   0.17365464 
    7100    1.0024547    36.683509   0.17222304   0.17372463 
    7200    1.0035166    37.171289    0.1720893   0.17377021 
    7300    1.0043093    37.719417   0.17223478    0.1738209 
    7400    1.0066916    38.152523   0.17185821   0.17385817 
    7500    1.0038727    38.664759   0.17184337   0.17387517 
    7600     1.008788    39.178671   0.17183627   0.17388242 
    7700    1.0194531    39.656153   0.17167165    0.1738809 
    7800    1.0037806    40.270357   0.17209554   0.17388967 
    7900    1.0040616    40.838262   0.17231334   0.17392103 
    8000    1.0225288    41.324971   0.17218738    0.1739539 
    8100    1.0023065    41.763081   0.17186452   0.17395741 
    8200   0.99503268    42.341245   0.17211888   0.17396231 
    8300    1.0087274    42.846732   0.17207522   0.17397313 
    8400    0.9946538     43.36973    0.1721021   0.17397659 
    8500    1.0000894    43.910202   0.17219687   0.17398671 
    8600    1.0033729    44.410677    0.1721344   0.17399884 
    8700   0.99682114    44.896397   0.17201684   0.17399955 
    8800    1.0083348    45.403797   0.17198407   0.17399295 
    8900    1.0099296    45.908204   0.17194083   0.17398524 
    9000    1.0052824    46.444519   0.17201673   0.17397698 
    9100     1.000499    47.004043   0.17217598   0.17397729 
    9200    1.0062615    47.516756   0.17216215   0.17397544 
    9300    1.0025429    48.055919   0.17224343   0.17397819 
    9400    1.0058421    48.520003   0.17205674   0.17397378 
    9500    1.0097252    48.903452   0.17159106    0.1739488 
    9600    1.0039926    49.327548   0.17127621   0.17390174 
    9700    1.0049806    49.718609   0.17085432   0.17382862 
    9800   0.99818797    50.178207   0.17067417   0.17374245 
    9900    1.0049781    50.575272   0.17028711   0.17364044 
   10000    0.9981771    51.120845   0.17040281   0.17353773 
   10100    1.0108151    51.643781   0.17044152    0.1734473 
   10200    1.0040614    52.078088   0.17018983   0.17335207 
   10300    1.0085418    52.537775   0.17002516   0.17324424 
   10400    1.0088372      53.0256   0.16995384   0.17313564 
   10500    1.0034404    53.485048    0.1697938    0.1730292 
   10600     1.009213    54.043323   0.16994755   0.17292358 
   10700    1.0015472    54.511948   0.16981915   0.17282405 
   10800    1.0076739    55.023296   0.16982498   0.17272211 
   10900    1.0025143    55.542214   0.16985386    0.1726314 
   11000    1.0094365    55.989287    0.1696645   0.17253013 
   11100    1.0042588    56.554653   0.16983379   0.17243921 
   11200    1.0038095    57.052697   0.16979969   0.17235266 
   11300    1.0097533    57.514883   0.16966042     0.172269 
   11400    1.0092321    58.037387   0.16969996   0.17218423 
   11500    1.0040779    58.607009   0.16987539   0.17210841 
   11600   0.99666094    59.030495   0.16962786   0.17203366 
   11700   0.99776199    59.592709    0.1697798   0.17195738 
   11800    1.0048963    60.144628   0.16990008   0.17189126 
   11900      1.00463     60.60619   0.16976524   0.17182665 
   12000    1.0074518    61.166338   0.16990649   0.17176503 
   12100    1.0066904    61.664599   0.16987492   0.17170563 
   12200    1.0038103    62.226639   0.17001814    0.1716551 
   12300    1.0092687    62.812287     0.170223   0.17161847 
   12400     1.006417    63.357849   0.17031679   0.17158587 
   12500   0.99842448    63.813639    0.1701697   0.17155382 
   12600    1.0008333    64.294802   0.17009207   0.17151501 
   12700    1.0063353    64.836275   0.17017395   0.17148061 
   12800    1.0032982    65.346875   0.17017415   0.17144912 
   12900    1.0130309    65.858906   0.17017805   0.17141875 
   13000    1.0025048    66.353122   0.17013621   0.17138792 
   13100     1.003784     66.87575    0.1701673   0.17135567 
   13200   0.99989797    67.448684   0.17032496   0.17132847 
   13300   0.99438221    68.065009   0.17058899   0.17131504 
   13400    1.0041779    68.623872   0.17070615   0.17131068 
   13500    1.0049499     69.09136   0.17059595   0.17130527 
   13600    1.0094951    69.629403    0.1706603   0.17129685 
   13700    1.0092023    70.204853   0.17081473   0.17129531 
   13800    1.0055705    70.802545   0.17102064   0.17129966 
   13900    1.0157865    71.243378   0.17084743    0.1713061 
   14000     1.011638    71.726202   0.17077667   0.17130392 
   14100    1.0012796    72.257617   0.17082179    0.1713033 
   14200    1.0016783    72.699462   0.17065601   0.17129925 
   14300    1.0070374    73.211883   0.17065707   0.17129158 
   14400   0.99544254    73.825751   0.17089294   0.17129096 
   14500    1.0100025    74.444912   0.17113773   0.17130013 
   14600   0.99942242    74.958384   0.17113786   0.17131351 
   14700    1.0078598    75.354639   0.17087219   0.17131929 
   14800    1.0059573    75.874164   0.17088775   0.17132207 
   14900    0.9980339    76.384032    0.1708815   0.17132291 
   15000    1.0023199    76.966029   0.17103562    0.1713309 
   15100    1.0043839    77.409903   0.17088279   0.17133328 
   15200    1.0109182     77.92678   0.17089206   0.17133294 
   15300    1.0177456    78.557515   0.17114927   0.17134048 
   15400    1.0099223    78.977962   0.17094797   0.17134791 
   15500    1.0085619    79.518861    0.1710083   0.17135192 
   15600     1.006261    80.072237   0.17109452   0.17135656 
   15700   0.99826903    80.752377   0.17144878   0.17137275 
   15800    1.0049269    81.393039   0.17171527   0.17139999 
   15900    1.0027947    81.909017   0.17171701   0.17142902 
   16000    1.0042799    82.387943   0.17164155   0.17145868 
   16100    1.0123168    82.911015   0.17165841   0.17148294 
   16200   0.99800636    83.426364   0.17165918   0.17150945 
   16300    1.0021386    83.809131   0.17138881   0.17152615 
   16400    1.0000345     84.20136   0.17114097   0.17153365 
   16500    1.0032384    84.740248   0.17119242   0.17153894 
   16600    1.0044981    85.143138   0.17097015   0.17153924 
   16700      1.00298     85.65921   0.17097647   0.17153799 
   16800    1.0077847    86.192163   0.17101619   0.17153599 
   16900    1.0055207    86.719505   0.17104439   0.17153625 
   17000    1.0001042    87.228233   0.17103575   0.17153518 
   17100    1.0151456    87.669293   0.17089531   0.17153001 
   17200    1.0177635    88.255286   0.17103737   0.17152734 
   17300   0.99921096    88.718537    0.1709413   0.17152606 
   17400    1.0071321    89.038796    0.1705724   0.17151476 
   17500    1.0185823     89.61055   0.17068676   0.17149929 
   17600    1.0085277    90.075607   0.17059774   0.17148563 
   17700    1.0005336    90.602266   0.17062574   0.17147251 
   17800    1.0013809    90.970917   0.17035752   0.17145303 
   17900   0.99936243    91.421834    0.1702455    0.1714281 
   18000    1.0005826    91.901598   0.17018814     0.171403 
   18100    1.0091871    92.418772   0.17020031   0.17137621 
   18200    1.0023824    92.924938   0.17019219   0.17135076 
   18300    1.0010627    93.454319   0.17022644   0.17132595 
   18400    1.0026292    93.971824   0.17023881     0.171303 
   18500    1.0008841    94.396285   0.17008339   0.17127843 
   18600    1.0104352    95.002698   0.17025573   0.17125484 
   18700    1.0110281    95.595481   0.17040193   0.17123761 
   18800     1.008145    96.110562    0.1704088   0.17122203 
   18900    1.0086628    96.634601   0.17043139   0.17120667 
   19000    1.0120164    97.292787    0.1706891   0.17119545 
   19100    1.0064446    97.864511   0.17079321   0.17119068 
   19200    1.0043255    98.464808   0.17094585    0.1711896 
   19300     1.013107    99.099214   0.17115581   0.17119633 
   19400   0.99628331    99.479888   0.17092764   0.17120081 
   19500    1.0038393    99.941556   0.17084027   0.17119933 
   19600    1.0101769    100.49303   0.17090652   0.17119938 
   19700    1.0048029    101.09579   0.17105887   0.17120178 
   19800   0.99897762    101.72324   0.17125124   0.17121002 
   19900    1.0115506    102.33305   0.17141215   0.17122326 
   20000     1.003773    102.85529   0.17142548   0.17123676 
   20100    1.0095016    103.43296   0.17153061   0.17125391 
   20200    1.0047089    103.95008   0.17153478   0.17127281 
   20300    1.0073512    104.47351   0.17154928   0.17128987 
   20400   0.99824423    105.09215   0.17171919   0.17131168 
   20500    1.0105901     105.5016   0.17154731   0.17133002 
   20600    1.0048779    106.00054   0.17152191   0.17134552 
   20700    1.0141846    106.55379   0.17158421   0.17136213 
   20800    1.0044163    107.04686   0.17154945   0.17137732 
   20900    1.0028946    107.59569   0.17160397   0.17139392 
   21000    1.0101955    108.11685   0.17161405   0.17141009 
   21100    1.0068775    108.52184   0.17144051   0.17142297 
   21200    1.0089125    109.17273   0.17165523   0.17143809 
   21300    1.0105256    109.61001   0.17153366   0.17145197 
   21400    1.0146364    110.05865   0.17143092   0.17146244 
   21500    1.0076582    110.55837   0.17140833   0.17147137 
   21600    1.0091244    111.01013   0.17131193   0.17147839 
   21700     1.010886    111.48997   0.17125955   0.17148221 
   21800    1.0206237     111.9967   0.17124877   0.17148576 
   21900    1.0103213    112.62077    0.1714167   0.17149277 
   22000    1.0134312     113.1578   0.17145121   0.17150113 
   22100        1.007    113.68562   0.17147152    0.1715095 
   22200    1.0103764     114.1807   0.17144249   0.17151789 
   22300    1.0071433    114.75978   0.17153928   0.17152715 
   22400    1.0113718    115.48129   0.17184716     0.171543 
   22500     1.005554    116.05919   0.17193954   0.17156248 
   22600    1.0091561    116.53015   0.17187338   0.17158183 
   22700    1.0058003    117.09492   0.17194555   0.17160013 
   22800    1.0076693    117.71651   0.17210016   0.17162242 
   22900   0.99690878    118.27735   0.17216499   0.17164597 
   23000    1.0104004    118.74997   0.17210141    0.1716686 
   23100    1.0038065    119.25976     0.172092   0.17169081 
   23200    1.0140702    119.71335   0.17200194   0.17170996 
   23300    1.0211806    120.29614   0.17209748   0.17172898 
   23400    1.0107562    120.87109   0.17218104   0.17174947 
   23500    1.0062338    121.51095   0.17235596    0.1717746 
   23600    1.0043797    122.01508   0.17233768   0.17179939 
   23700    1.0090403    122.52325   0.17232525   0.17182467 
   23800    1.0054017     123.0091   0.17228164   0.17184747 
   23900   0.99944221    123.49803   0.17224271    0.1718691 
   24000    1.0078991    123.99861   0.17222029   0.17188996 
   24100    1.0020569    124.39418   0.17205281   0.17190733 
   24200    1.0147753    124.73475   0.17181094   0.17191859 
   24300    1.0067384    125.16919   0.17169985   0.17192637 
   24400   0.98666488    125.61498   0.17160516   0.17193118 
   24500    1.0009468    125.93823   0.17134453   0.17193111 
   24600    1.0054438    126.47109   0.17137003   0.17192861 
   24700    1.0059577    126.96019   0.17133628   0.17192558 
   24800    1.0084232    127.52444   0.17140382   0.17192322 
   24900     1.009054    128.21258   0.17163665   0.17192474 
   25000    1.0052108    128.73534   0.17164712   0.17192915 
   25100    1.0043743    129.34691   0.17177544   0.17193424 
   25200    1.0119859    129.96506   0.17191146   0.17194417 
   25300    1.0018646    130.54182   0.17199186   0.17195477 
   25400    1.0091058    131.12268     0.172077   0.17196756 
   25500    1.0141344     131.6995   0.17215621   0.17198174 
   25600    1.0056486    132.18146   0.17211127   0.17199626 
   25700    1.0037513    132.62692   0.17201935   0.17200889 
   25800    0.9989963    133.21211   0.17210867   0.17202114 
   25900    1.0032411     133.6978   0.17206924   0.17203304 
   26000    1.0168176    134.25648   0.17212369   0.17204467 
   26100    1.0051724     134.7684   0.17211801   0.17205748 
   26200    1.0017455    135.17239   0.17197505   0.17206767 
   26300     1.005974    135.77185   0.17208093   0.17207664 
   26400    1.0024815    136.34846   0.17215714   0.17208947 
   26500   0.99754481    136.84537   0.17213254   0.17210206 
   26600    1.0078845    137.30169   0.17205726   0.17211212 
   26700    1.0063734    137.78197   0.17201245   0.17212125 
   26800    1.0002709    138.22917   0.17192683    0.1721288 
   26900    1.0058255    138.77836   0.17196822   0.17213536 
   27000    1.0080179    139.40842   0.17210916   0.17214431 
   27100    1.0083276     139.8633   0.17203358   0.17215288 
   27200    1.0096772    140.35038   0.17199802   0.17216095 
   27300    1.0083374    141.02996   0.17219776   0.17217016 
   27400    1.0145977    141.58447   0.17224388   0.17218205 
   27500     1.012463    142.01189   0.17213563   0.17219331 
   27600    1.0146196    142.55316   0.17216565   0.17220269 
   27700    1.0050211    143.17784   0.17229583   0.17221418 
   27800   0.99538054    143.79579   0.17241701   0.17222785 
   27900    1.0066307     144.2655   0.17236021   0.17224286 
   28000   0.99804211    144.68842   0.17224812   0.17225459 
   28100    1.0135628    145.15986   0.17219438   0.17226424 
   28200    1.0047842    145.73743   0.17226647   0.17227486 
   28300    1.0046252     146.3981   0.17243593   0.17228716 
   28400    1.0116606    147.00435   0.17254031   0.17230329 
   28500    1.0069383    147.51355   0.17253047   0.17231923 
   28600    1.0049254    147.86574   0.17233769    0.1723316 
   28700    1.0018025    148.29177   0.17223202   0.17234109 
   28800    1.0133259    148.81539   0.17224003   0.17234942 
   28900    1.0170174    149.28965   0.17219106   0.17235783 
   29000    0.9957544    149.74194   0.17211717   0.17236376 
   29100    1.0057225    150.25501   0.17211341   0.17236929 
   29200    1.0055898    150.82811   0.17217821   0.17237641 
   29300    1.0104264    151.37386   0.17221145   0.17238319 
   29400    1.0111213     151.8694   0.17218752   0.17238992 
   29500   0.99829648    152.52012   0.17233912    0.1723987 
   29600    1.0034854    152.96726   0.17226042    0.1724067 
   29700   0.99624851    153.48444   0.17226087   0.17241409 
   29800    1.0044702    153.96042   0.17221523   0.17242112 
   29900     1.017189    154.46619   0.17220311   0.17242741 
   30000    1.0161182    155.03334   0.17225926   0.17243397 
   30100    1.0081786    155.55819   0.17226821   0.17244176 
   30200    1.0082274    155.96649   0.17214844   0.17244736 
   30300    1.0097938    156.32682    0.1719767   0.17245012 
   30400    1.0025779    156.76235   0.17188855   0.17244994 
   30500    1.0109281    157.23369   0.17184009   0.17244888 
   30600     1.014915    157.78984   0.17188436   0.17244745 
   30700    1.0090601    158.27481   0.17185104    0.1724465 
   30800    1.0007027    158.78353   0.17184365   0.17244467 
   30900    1.0035307    159.11587   0.17164603   0.17244125 
   31000    1.0029371    159.65531   0.17167238   0.17243629 
   31100     1.005473    159.99787   0.17148753   0.17243053 
   31200    1.0096937    160.38022   0.17134639   0.17242048 
   31300    1.0100859    160.86963   0.17132015   0.17240945 
   31400    1.0016904     161.3197   0.17125234   0.17239711 
   31500    1.0074042    161.83646   0.17125552   0.17238514 
   31600    1.0066353    162.38746   0.17129478   0.17237361 
   31700    1.0091781    162.90958   0.17130345   0.17236242 
   31800    1.0141052     163.4416   0.17132243   0.17235193 
   31900    1.0125662    163.91487    0.1712799   0.17234095 
   32000    1.0083512    164.51614   0.17137097   0.17233116 
   32100    1.0048864    164.91181   0.17124798   0.17232099 
   32200    1.0033987    165.38739   0.17120848   0.17230939 
   32300    1.0040363    165.99619    0.1713067   0.17229833 
   32400    1.0060849    166.45706   0.17125212   0.17228817 
   32500    1.0074527    166.98893   0.17127069   0.17227724 
   32600    1.0060895    167.68417   0.17145621   0.17226843 
   32700    1.0033629    168.21155   0.17146947   0.17226149 
   32800    1.0096706    168.74525   0.17148907   0.17225477 
   32900    1.0107507    169.37552    0.1716064   0.17224992 
   33000    1.0043551    169.82178   0.17153716   0.17224548 
   33100    1.0133589    170.16287    0.1713624   0.17223884 
   33200     1.008441    170.64703   0.17133236   0.17223007 
   33300    1.0070601    170.95106   0.17112218   0.17221974 
   33400    1.0106236    171.46368   0.17112144   0.17220764 
   33500    1.0117141    171.98467   0.17112903   0.17219547 
   33600    1.0103329     172.5144   0.17114524    0.1721845 
   33700    1.0088234    172.95002   0.17106827   0.17217231 
   33800    1.0095593    173.50981   0.17111421   0.17216026 
   33900    1.0121143     173.8583   0.17095211   0.17214721 
   34000    1.0056168    174.37481   0.17095569   0.17213279 
   34100   0.99463355    174.78632   0.17085661   0.17211777 
   34200    1.0149816    175.49252   0.17104534   0.17210395 
   34300   0.99627817      176.089   0.17112633   0.17209307 
   34400   0.99729617    176.62451   0.17114778   0.17208267 
   34500    1.0057582    176.89438   0.17091245   0.17207032 
   34600    1.0080503    177.40546   0.17091084   0.17205628 
   34700    1.0079527    177.76369   0.17076243   0.17204129 
   34800   0.99822514    178.06891   0.17056409   0.17202346 
   34900    1.0071657    178.31301   0.17030851   0.17200174 
   35000   0.99863246    178.53708   0.17003531   0.17197622 
   35100   0.99743234     179.0516   0.17003951   0.17194879 
   35200    1.0082244    179.57592   0.17005295   0.17192098 
   35300   0.99999315    180.05699   0.17002549   0.17189435 
   35400    1.0137465    180.52304   0.16998403   0.17186675 
   35500    1.0074946    180.94404    0.1699005   0.17183916 
   35600   0.99727067    181.31935   0.16977467   0.17180989 
   35700    1.0092343    181.92963   0.16986894   0.17178085 
   35800    1.0037394    182.56807   0.16998889   0.17175416 
   35900    1.0077088    183.03695   0.16995074   0.17172894 
   36000    1.0010502    183.49993   0.16990734   0.17170241 
   36100      1.01251    184.00275   0.16990097   0.17167665 
   36200     1.003213    184.70766   0.17008072   0.17165246 
   36300   0.99852059     185.3139   0.17016887   0.17163028 
   36400    1.0029299    185.86809   0.17020887   0.17160967 
   36500    1.0029788    186.49372    0.1703139   0.17159106 
   36600    1.0074077    187.13094    0.1704289    0.1715747 
   36700   0.99540045    187.80715    0.1705787   0.17155989 
   36800    1.0111109    188.42882   0.17067828   0.17154765 
   36900    1.0045048    188.95553   0.17069154   0.17153613 
   37000    1.0128471    189.52466   0.17074293   0.17152526 
   37100    1.0061939    190.36942   0.17104171   0.17151764 
   37200    1.0072143    190.89777   0.17105535   0.17151244 
   37300    1.0099611    191.45006   0.17109031   0.17150755 
   37400    1.0107497    192.05074   0.17116821   0.17150374 
   37500    1.0039295    192.63484   0.17123097   0.17150096 
   37600     1.017811    193.15711   0.17123857   0.17149889 
   37700    1.0075527    193.62795   0.17120066   0.17149705 
   37800    1.0076121    194.28459    0.1713268   0.17149561 
   37900    1.0043581    194.86785   0.17138773   0.17149548 
   38000    1.0077336    195.35387   0.17136304   0.17149573 
   38100    1.0122192    195.90634   0.17139662    0.1714961 
   38200    1.0118571      196.499   0.17146509   0.17149668 
   38300    1.0114396    197.30646   0.17172015   0.17150114 
   38400    1.0026132    197.83747   0.17173392   0.17150715 
   38500   0.99631856    198.37918   0.17175687   0.17151309 
   38600   0.99936829    198.72228   0.17160819   0.17151804 
   38700     1.004467    199.11631   0.17150414    0.1715209 
   38800    1.0030325     199.6663   0.17153462   0.17152316 
   38900    1.0074581    200.12652   0.17148802   0.17152483 
   39000      1.00317    200.74194   0.17157431   0.17152755 
   39100    1.0072487    201.27471   0.17158969   0.17153038 
   39200     1.005477    201.81171    0.1716086   0.17153315 
   39300    1.0043208    202.47531   0.17173478   0.17153766 
   39400    1.0013542    202.81209   0.17158383   0.17154208 
   39500    1.0083446    203.28479   0.17154835   0.17154453 
   39600    1.0078683    203.82203   0.17156736   0.17154719 
   39700     1.008516    204.26711    0.1715089   0.17154907 
   39800    1.0001915    204.82073   0.17154165   0.17155074 
   39900   0.99923791    205.29275   0.17150606   0.17155266 
   40000    1.0032277    205.78535   0.17148779   0.17155391 
   40100    1.0097363    206.39476   0.17156671   0.17155571 
   40200    1.0054427    207.02733   0.17166445   0.17155886 
   40300    1.0083013    207.59908    0.1717114   0.17156269 
   40400    1.0170458    208.19235   0.17177587   0.17156819 
   40500    1.0144369     208.6683   0.17174346   0.17157331 
   40600    1.0034818    209.26167   0.17180761   0.17157853 
   40700    1.0075895    209.90701   0.17191401   0.17158529 
   40800    1.0003345    210.45806   0.17194286   0.17159264 
   40900    1.0109462     210.9608   0.17193219   0.17159989 
   41000    1.0071442    211.36292   0.17183977   0.17160666 
   41100    1.0052426    212.01833   0.17195322   0.17161323 
   41200    1.0106433    212.66905   0.17206234   0.17162108 
   41300    1.0021377    213.24838    0.1721133   0.17163054 
   41400    1.0143081    213.90449   0.17222584    0.1716408 
   41500     1.013709    214.31387   0.17213965   0.17165057 
   41600    1.0078283    214.96432   0.17224705    0.1716611 
   41700    1.0120086    215.59419   0.17233748    0.1716734 
   41800    1.0032795    216.03706   0.17227836   0.17168487 
   41900    1.0116251    216.44622    0.1721927   0.17169552 
   42000    1.0103782    216.91427   0.17215418   0.17170449 
   42100    1.0071705    217.40498   0.17213379   0.17171371 
   42200    1.0126905     217.9176   0.17213081   0.17172272 
   42300    1.0138571    218.24856   0.17198468   0.17172989 
   42400    1.0066974    218.72208   0.17195132   0.17173595 
   42500    1.0096779    219.28988   0.17199206   0.17174205 
   42600    1.0106681    219.66593   0.17188257   0.17174774 
   42700      1.01266    220.07619    0.1718003   0.17175161 
   42800    1.0126782    220.61706   0.17182014   0.17175542 
   42900    1.0067222    221.06817   0.17177014   0.17175885 
   43000     1.011734    221.51303   0.17171552    0.1717612 
   43100    1.0034768    222.11722    0.1717844   0.17176393 
   43200    1.0067476    222.61478   0.17177066   0.17176715 
   43300    1.0071104     222.9937   0.17166567   0.17176968 
   43400    1.0040653    223.50942   0.17166622    0.1717706 
   43500   0.99628446     224.2466   0.17183647    0.1717734 
   43600     1.002792    224.75246    0.1718291   0.17177716 
   43700    1.0088141    225.19076   0.17177022   0.17178033 
   43800    1.0029583    225.79252   0.17183601    0.1717837 
   43900    1.0106384    226.41559   0.17191768   0.17178799 
   44000    1.0070022    226.95128   0.17193279    0.1717927 
   44100    1.0069746    227.64914    0.1720704   0.17179807 
   44200      1.00554    228.22821   0.17211781    0.1718054 
   44300   0.99550969    228.84867   0.17219614   0.17181318 
   44400   0.99724593    229.35586   0.17218909   0.17182114 
   44500    1.0029109    229.84659   0.17216973   0.17182898 
   44600    1.0050256    230.23236   0.17207202   0.17183559 
   44700    1.0125393    230.79468    0.1721064   0.17184202 
   44800    1.0109301    231.22849   0.17204501   0.17184761 
   44900    1.0012646    231.87791   0.17214395   0.17185451 
   45000    1.0067908    232.42156   0.17216412   0.17186137 
   45100    1.0093689    233.06509   0.17225801   0.17186935 
   45200    1.0024115    233.59182   0.17226535   0.17187756 
   45300    1.0082012    234.02006   0.17220019   0.17188492 
   45400    1.0078403    234.42053   0.17211493   0.17189138 
   45500    1.0065149    235.04189   0.17219186   0.17189796 
   45600   0.99519513    235.46539   0.17212383   0.17190452 
   45700   0.99411493    236.04773   0.17217194    0.1719103 
   45800    1.0006957    236.58829   0.17218944   0.17191738 
   45900    1.0094316    237.00409   0.17211626   0.17192375 
   46000     1.004077    237.40628   0.17203353   0.17192849 
   46100   0.99980346    237.91357   0.17202716   0.17193304 
   46200    1.0047309    238.53267   0.17210149   0.17193786 
   46300    0.9999414    239.10149    0.1721393    0.1719441 
   46400    1.0052472    239.52652   0.17207365   0.17194936 
   46500   0.99930028    240.02205   0.17205881   0.17195393 
   46600   0.99462772    240.33432   0.17191296   0.17195784 
   46700    1.0058846    240.78877   0.17186922   0.17196013 
   46800     1.011137    241.30254   0.17186791    0.1719622 
   46900    1.0011796    241.77558   0.17183766   0.17196386 
   47000    1.0130714    242.07355   0.17168337   0.17196455 
   47100    1.0058026    242.47991   0.17160645   0.17196349 
   47200    1.0044267    242.92742   0.17155891   0.17196182 
   47300   0.99791445     243.1748   0.17137054    0.1719586 
   47400    1.0074007    243.63469   0.17133241   0.17195384 
   47500    1.0095629    244.05337   0.17126552   0.17194862 
   47600     1.011376    244.42196   0.17116383   0.17194271 
   47700     1.007112    244.90017   0.17113918   0.17193604 
   47800    1.0067347     245.0249   0.17086813   0.17192697 
   47900    1.0111539    245.51041   0.17084927   0.17191643 
   48000    1.0117882    246.09044   0.17089614   0.17190631 
   48100    1.0078333     246.7203   0.17097734   0.17189687 
   48200     1.015736    247.13924   0.17091233     0.171888 
   48300    1.0116386    247.50624   0.17081176   0.17187809 
   48400    1.0140233    247.99282   0.17079395   0.17186752 
   48500    1.0079774    248.20265   0.17058602   0.17185539 
   48600    1.0091389    248.72883    0.1705959   0.17184224 
   48700    1.0007359     249.3884   0.17069706   0.17183062 
   48800    1.0001948    249.86079   0.17066994    0.1718189 
   48900    1.0051906    250.38016   0.17067496   0.17180717 
   49000    1.0055251    250.87292   0.17066185   0.17179575 
   49100    1.0119298    251.22702   0.17055466   0.17178364 
   49200    1.0081387    251.61856   0.17047328   0.17177031 
   49300    1.0069444    252.11655    0.1704642   0.17175642 
   49400     1.007388    252.85574   0.17061791   0.17174416 
   49500    1.0003689    253.14448   0.17046766   0.17173172 
   49600    1.0092337    253.37733   0.17028046   0.17171719 
   49700    1.0074515    253.69909   0.17015365   0.17170109 
   49800    1.0142657    254.04637   0.17004442   0.17168367 
   49900    1.0109918    254.37073   0.16992033   0.17166488 
   50000    1.0102424     254.9658    0.1699772   0.17164629 
   50100   0.99798835    255.35897   0.16989951   0.17162724 
   50200   0.99831962    255.72558    0.1698045   0.17160761 
   50300    1.0186402    256.11324   0.16972381   0.17158703 
   50400    1.0068987    256.64145   0.16973641   0.17156628 
   50500    1.0108563    257.21081   0.16977611   0.17154615 
   50600    1.0080763    257.69082    0.1697568   0.17152653 
   50700   0.99838129    258.01108   0.16963253   0.17150611 
   50800    1.0025157     258.5032   0.16962152   0.17148495 
   50900    1.0036285    258.84321   0.16951094    0.1714637 
   51000    1.0053663    259.31439   0.16948653   0.17144122 
   51100    1.0068878    259.91979   0.16954976   0.17141942 
   51200    1.0044499    260.51127   0.16960369   0.17139845 
   51300    1.0052101    261.01899   0.16960298   0.17137836 
   51400    1.0104428    261.37478   0.16950375   0.17135777 
   51500   0.99685726    261.80274   0.16945161   0.17133639 
   51600    1.0006496    262.18434   0.16936973    0.1713145 
   51700    1.0050656     262.4487   0.16921257   0.17129104 
   51800    1.0064634    262.82205   0.16912616   0.17126668 
   51900    1.0000502      263.345   0.16913616   0.17124209 
   52000   0.99726482    263.79213   0.16909752   0.17121759 
   52100   0.99664992    264.27578   0.16908239   0.17119296 
   52200    1.0096667    264.82697   0.16911045   0.17116894 
   52300      1.00656    265.29126   0.16908302   0.17114484 
   52400     1.004204    265.65725   0.16899316   0.17112049 
   52500   0.99647809    266.13313   0.16897342    0.1710953 
   52600     1.003978    266.91099   0.16914511   0.17107176 
   52700    1.0079015    267.28876    0.1690631   0.17104879 
   52800    1.0090337    267.90067   0.16912921   0.17102611 
   52900   0.99972222    268.46102   0.16916258     0.171004 
   53000   0.99631492    269.09844    0.1692443   0.17098267 
   53100    1.0077388    269.65587    0.1692755   0.17096208 
   53200    1.0027284    270.05156   0.16920524   0.17094172 
   53300    0.9974455    270.49977   0.16916809   0.17092056 
   53400    1.0111699    271.04018   0.16918863   0.17089993 
   53500    1.0105174    271.51414   0.16916769   0.17087933 
   53600    1.0050169    272.05684   0.16918957   0.17085877 
   53700   0.99048084    272.56182   0.16918797   0.17083846 
   53800     1.002916    273.24443   0.16929642   0.17081917 
   53900    1.0016017    273.77958   0.16931328   0.17080101 
   54000     1.006114    274.33981   0.16934556   0.17078291 
   54100   0.99920002    274.72873   0.16927217   0.17076467 
   54200    1.0016034    275.23411   0.16927067   0.17074668 
   54300    1.0081457    275.79501   0.16930326   0.17072869 
   54400    1.0000191    276.52106   0.16943693   0.17071205 
   54500    1.0087946    276.68997   0.16922934   0.17069493 
   54600     1.019064    277.32377   0.16930633    0.1706774 
   54700   0.99885226    278.16332   0.16950842   0.17066185 
   54800    1.0030443    278.70001   0.16952555   0.17064728 
   54900    1.0020353     279.4601   0.16967826   0.17063359 
   55000    1.0081638    280.20061   0.16981855   0.17062176 
   55100    1.0051608    280.72319   0.16982649    0.1706108 
   55200    1.0049914    281.27277   0.16985071   0.17060061 
   55300    1.0082441    281.84779   0.16989017   0.17059033 
   55400     1.005855    282.44238   0.16994127   0.17058092 
   55500    1.0036284    282.86425   0.16988844   0.17057127 
   55600    1.0027694     283.3377   0.16986672   0.17056156 
   55700    1.0027772    283.80506   0.16984145   0.17055169 
   55800    1.0059743    284.57153   0.16999494   0.17054261 
   55900    1.0095339    285.27476   0.17011017   0.17053473 
   56000    1.0071033    285.78206   0.17010837   0.17052806 
   56100    1.0016894    286.28062   0.17010138   0.17052115 
   56200    1.0008147    286.61606   0.16999766   0.17051336 
   56300    1.0044475    287.10755   0.16998671   0.17050533 
   56400    1.0068703    287.66828   0.17001671   0.17049747 
   56500    1.0067105    288.27748   0.17007521   0.17049009 
   56600     1.010029     288.5637   0.16994329   0.17048247 
   56700   0.99934588    288.82134   0.16979503   0.17047325 
   56800    1.0056659    289.16054   0.16969515   0.17046321 
   56900    1.0097012    289.62018   0.16966619   0.17045241 
   57000    1.0031712    290.04608   0.16961759   0.17044103 
   57100    1.0019106    290.81659   0.16977034   0.17043042 
   57200    1.0098596    291.39602    0.1698112   0.17042098 
   57300    1.0065037    291.74918   0.16972029   0.17041136 
   57400    1.0113884    292.40002   0.16980257   0.17040192 
   57500    1.0035891    292.86154    0.1697748   0.17039276 
   57600    1.0048043    293.32532   0.16974845   0.17038328 
   57700    1.0024668    293.92582   0.16980117   0.17037417 
   57800    1.0065723    294.45768   0.16981412   0.17036549 
   57900    1.0075996    294.92149   0.16978785   0.17035656 
   58000      1.00881    295.37862   0.16975782   0.17034758 
   58100    1.0044757    295.77727   0.16969436   0.17033822 
   58200    1.0041862    296.36089   0.16973705    0.1703286 
   58300    1.0088244    296.84957   0.16972531    0.1703198 
   58400   0.99903412    297.16353   0.16961388   0.17031013 
   58500    1.0079175    297.68201   0.16961938   0.17030003 
   58600    1.0121707    298.24401   0.16964961    0.1702902 
   58700      1.00607    298.73048   0.16963684   0.17028032 
   58800   0.99238986     299.2835   0.16966185   0.17027095 
   58900     1.006862     299.6241   0.16956655   0.17026123 
   59000    1.0082084    299.98389   0.16948242   0.17025057 
   59100    1.0002326    300.51865   0.16949726    0.1702399 
   59200    1.0126955     300.8843   0.16941684   0.17022875 
   59300    1.0123174    301.35317    0.1693947   0.17021725 
   59400   0.99990081    301.84166   0.16938365   0.17020579 
   59500    1.0155042    302.43604   0.16943195   0.17019447 
   59600    1.0154491    303.15511   0.16954984   0.17018416 
   59700    1.0065585    303.78713   0.16961872   0.17017499 
   59800   0.99903162    304.40784   0.16968107   0.17016648 
   59900    1.0032319    304.92164   0.16968371   0.17015837 
   60000   0.99494069    305.44603   0.16969224   0.17015021 
   60100     1.013047     306.0295    0.1697335   0.17014272 
   60200    1.0073606    306.50495   0.16971481   0.17013514 
   60300   0.99924006    307.08963   0.16975657   0.17012771 
   60400    1.0032761     307.8356    0.1698872   0.17012128 
   60500    1.0079329    308.38081   0.16990678   0.17011566 
   60600    1.0138949    308.88261   0.16990242   0.17011026 
   60700    1.0038297    309.47435   0.16994747   0.17010482 
   60800    1.0140921    310.05972   0.16998888   0.17010042 
   60900    1.0103641    310.37851   0.16988424   0.17009543 
   61000      1.00877    310.75488   0.16981141    0.1700892 
   61100    1.0027942    311.27496   0.16981722   0.17008303 
   61200    1.0035232    311.86023   0.16985851   0.17007719 
   61300    1.0083383    312.21925   0.16977664   0.17007127 
   61400    1.0005452    312.80341   0.16981727   0.17006507 
   61500     1.001799    313.16902   0.16973931   0.17005867 
   61600    1.0095929    313.74558   0.16977574    0.1700523 
   61700    1.0066721    314.31762   0.16980962   0.17004655 
   61800    1.0049462    314.60276   0.16968865   0.17004004 
   61900    1.0086075    315.09323   0.16967864     0.170033 
   62000    1.0072156    315.53727   0.16964369   0.17002591 
   62100   0.99998039    315.90688   0.16956891   0.17001837 
   62200    1.0089939    316.26738   0.16948949   0.17000999 
   62300    1.0074951    316.74637   0.16947371   0.17000134 
   62400     1.004946    317.37595   0.16953843   0.16999303 
   62500    1.0092275    318.07807   0.16964163   0.16998579 
   62600    1.0089239    318.44405   0.16956552    0.1699785 
   62700    1.0111895    319.12354   0.16965632   0.16997161 
   62800     1.016546    319.56963   0.16962294   0.16996493 
   62900    1.0106025    320.05308   0.16960948     0.169958 
   63000    1.0095677     320.4453   0.16954777   0.16995051 
   63100    1.0064684    321.16072   0.16965701    0.1699437 
   63200    1.0070854    321.58805   0.16961395   0.16993721 
   63300    1.0022686    321.96081   0.16954229   0.16992988 
   63400    1.0028936    322.62126   0.16962211   0.16992299 
   63500     1.000244    323.27171   0.16969644   0.16991694 
   63600     1.001983    323.77343   0.16969257     0.169911 
   63700    1.0084157    324.30569    0.1697047   0.16990536 
   63800    1.0049765    324.68094   0.16963476   0.16989939 
   63900    1.0038336    325.29686   0.16969059    0.1698935 
   64000   0.99853297    325.80688   0.16969108   0.16988767 
   64100    1.0051347    326.22357   0.16964304   0.16988194 
   64200    1.0027006    326.73853   0.16964617   0.16987565 
   64300    1.0010621    327.15823   0.16959991   0.16986973 
   64400    1.0083878    327.61612   0.16957356   0.16986332 
   64500    1.0024508     328.0725   0.16954651   0.16985674 
   64600    1.0100617    328.59386   0.16955307   0.16985022 
   64700    1.0028803    328.96406   0.16948174   0.16984338 
   64800    1.0182607    329.43474   0.16946231    0.1698361 
   64900    1.0163615    330.11533   0.16955076    0.1698293 
   65000    1.0119376    330.84376   0.16966346   0.16982354 
   65100    1.0089061    331.37473   0.16967472   0.16981822 
   65200    1.0049767    331.80081   0.16963232   0.16981313 
   65300    1.0145833    332.23423   0.16959379   0.16980733 
   65400      1.01818    332.64863   0.16954568   0.16980129 
   65500   0.99997619    333.30079   0.16961872    0.1697956 
   65600      1.01042    333.78996   0.16960872   0.16979008 
   65700    1.0074471    334.33814   0.16962869   0.16978473 
   65800    1.0084127    334.86845   0.16963954    0.1697796 
   65900   0.99941397    335.39095   0.16964641    0.1697744 
   66000    1.0167374    335.84094   0.16961664    0.1697693 
   66100    1.0112724    336.33758   0.16961048   0.16976421 
   66200    1.0031527    336.71967   0.16954666   0.16975851 
   66300    1.0171176    337.35629     0.169611   0.16975321 
   66400    1.0045151    337.77586    0.1695662   0.16974781 
   66500    1.0038636    338.24017   0.16954395   0.16974207 
   66600    1.0013181    338.59781   0.16946837   0.16973633 
   66700     1.000024    338.88792   0.16935928   0.16972956 
   66800    1.0042049     339.3374   0.16933004   0.16972234 
   66900    1.0078616    339.93293   0.16937366   0.16971496 
   67000    1.0044799    340.59969   0.16945258   0.16970837 
   67100    1.0063452    341.06917   0.16943327   0.16970204 
   67200    1.0110225    341.72754   0.16950771   0.16969612 
   67300    1.0025011    342.40722   0.16959248   0.16969093 
   67400    1.0040735    342.96105   0.16961476    0.1696864 
   67500    1.0116158    343.40914   0.16958476   0.16968159 
   67600    1.0060425    343.74653   0.16950026    0.1696764 
   67700    1.0054851    344.01025   0.16937974   0.16967007 
   67800    1.0008004     344.5638   0.16940206   0.16966364 
   67900    1.0048534    344.81754   0.16927714    0.1696567 
   68000   0.99815712    345.18961   0.16921059   0.16964904 
   68100    1.0006952    345.63561   0.16918042   0.16964109 
   68200    1.0032911    345.90928   0.16906612   0.16963242 
   68300   0.99844326     346.3129   0.16901557   0.16962307 
   68400    1.0083666    346.85394   0.16903213   0.16961381 
   68500    1.0017581    347.35829    0.1690308   0.16960482 
   68600   0.99828315     347.9022   0.16904869    0.1695956 
   68700    1.0101074    348.57905   0.16913103   0.16958717 
   68800   0.99530011    349.04982   0.16911328   0.16957917 
   68900   0.99340084    349.49208    0.1690818   0.16957083 
   69000   0.99637642    350.10763   0.16913412   0.16956243 
   69100    1.0047997    350.79671   0.16922176   0.16955535 
   69200    1.0128579    351.28843   0.16921408   0.16954834 
   69300    1.0032351    351.72982   0.16918221   0.16954123 
   69400    1.0030787    352.00783   0.16907196   0.16953377 
   69500    1.0018454    352.65511   0.16913914   0.16952581 
   69600     1.002261    352.91251    0.1690194   0.16951795 
   69700    1.0108786    353.35326   0.16898769   0.16950912 
   69800    1.0171161    353.98469   0.16904713   0.16950076 
   69900    1.0042163    354.53837   0.16906932   0.16949272 
   70000    1.0054741      355.036   0.16906476   0.16948497 
   70100    1.0126313    355.45414   0.16902242   0.16947698 
   70200   0.99918238    356.01991   0.16905029     0.169469 
   70300    1.0166663    356.56179   0.16906676   0.16946142 
   70400     1.004808    357.20147   0.16912948   0.16945417 
   70500    1.0049057    357.52871   0.16904431   0.16944673 
   70600    1.0087157    358.13274   0.16909006   0.16943918 
   70700    1.0062703    358.46053   0.16900543   0.16943141 
   70800    1.0112453    359.08387    0.1690602   0.16942371 
   70900   0.99447071    359.61173   0.16906993   0.16941655 
   71000     1.003698    360.06648    0.1690453   0.16940916 
   71100    1.0132354    360.87056   0.16918451   0.16940233 
   71200    1.0058673    361.27003   0.16913391   0.16939604 
   71300    1.0096722    361.69143    0.1690937   0.16938923 
   71400    1.0131784    362.08069    0.1690386   0.16938213 
   71500    1.0082248    362.36877   0.16893649   0.16937445 
   71600    1.0066277    362.83423   0.16891724   0.16936633 
   71700    1.0095825    363.36744   0.16892954   0.16935821 
   71800    1.0142825    363.58858   0.16879693   0.16934964 
   71900    1.0056825    364.30953    0.1688964     0.169341 
   72000    1.0066792    364.76017   0.16887045   0.16933304 
   72100    1.0079858    365.40608   0.16893485   0.16932495 
   72200    1.0113069    365.98311   0.16896727   0.16931768 
   72300    1.0046697    366.59598   0.16901613   0.16931051 
   72400    1.0110544    367.23636   0.16907751    0.1693039 
   72500    1.0050961    367.87273   0.16913689   0.16929771 
   72600     1.011617     368.4002   0.16914609   0.16929187 
   72700    1.0068235    368.93509   0.16915869    0.1692863 
   72800    1.0067856    369.45052   0.16916233   0.16928077 
   72900    1.0074167    369.87386   0.16912385   0.16927524 
   73000    1.0003242    370.60307   0.16922515   0.16926974 
   73100   0.99362915    371.13075   0.16923427   0.16926506 
   73200    1.0050086    371.79897   0.16930736   0.16926065 
   73300     1.002036    372.44901   0.16937199   0.16925672 
   73400   0.99554264    373.22826   0.16949512   0.16925375 
   73500   0.99860581    373.84387    0.1695437   0.16925132 
   73600    1.0084759    374.48551   0.16960394    0.1692494 
   73700     1.009755    374.96841   0.16959223   0.16924788 
   73800     1.010651    375.46232   0.16958551    0.1692463 
   73900    1.0094719    375.99882   0.16959802   0.16924474 
   74000    1.0049678    376.28949   0.16949977   0.16924276 
   74100    1.0079499    376.80861   0.16950455    0.1692403 
   74200    1.0107992    377.56014   0.16961372   0.16923848 
   74300    1.0079338    378.15511   0.16965236   0.16923722 
   74400    1.0097032    378.47489    0.1695676   0.16923585 
   74500    1.0080496    379.13607   0.16963582   0.16923423 
   74600   0.99989873     379.5469     0.169592     0.169233 
   74700   0.99480325    379.99581   0.16956529   0.16923147 
   74800   0.99883503    380.52707   0.16957534   0.16922981 
   74900    1.0114827    381.24499   0.16966844    0.1692287 
   75000    1.0133631    381.87444   0.16972197   0.16922819 
   75100    1.0047312    382.44778   0.16975046     0.169228 
   75200    1.0085476    383.05568   0.16979419   0.16922795 
   75300    1.0073436    383.45094   0.16974366   0.16922787 
   75400     1.006572    383.81562   0.16967976    0.1692274 
   75500     1.016191    384.13497   0.16959601   0.16922626 
   75600    1.0175065    384.36874   0.16947475   0.16922442 
   75700    1.0018993    384.97865   0.16951944   0.16922242 
   75800      1.00676    385.52176   0.16953464   0.16922071 
   75900    1.0043191     386.0108   0.16952604    0.1692188 
   76000     1.004466    386.44412   0.16949303   0.16921686 
   76100    1.0058936     386.5606   0.16932133   0.16921409 
   76200    1.0011438    387.10138   0.16933569   0.16921064 
   76300    1.0060151    387.59216   0.16932816    0.1692072 
   76400    1.0042972    387.98149   0.16927639   0.16920372 
   76500    1.0110675    388.46592    0.1692662   0.16919999 
   76600    1.0092932    388.95846   0.16925955   0.16919618 
   76700    1.0049194    389.69801   0.16936028   0.16919277 
   76800    1.0028626    390.18903   0.16935288   0.16918983 
   76900    1.0147556    390.54526   0.16928707   0.16918663 
   77000    1.0085267     390.8966   0.16921931   0.16918281 
   77100    1.0166017    391.35391   0.16919754   0.16917888 
   77200    1.0104507    391.60032   0.16908477   0.16917433 
   77300    1.0041879    392.12878   0.16909391   0.16916952 
   77400    1.0139007    392.69857   0.16912083   0.16916482 
   77500     1.002775    393.37553   0.16919378   0.16916057 
   77600     1.008186    394.24811   0.16935056   0.16915717 
   77700    1.0138122    394.87738   0.16940256   0.16915477 
   77800      1.00818     395.3985    0.1694081    0.1691526 
   77900    1.0113554    396.08903    0.1694861   0.16915077 
   78000    1.0047911    396.69596   0.16952819   0.16914926 
   78100    1.0092431    397.29945   0.16956869   0.16914823 
   78200    1.0117849    397.52846   0.16944947   0.16914665 
   78300    1.0034644    398.01138   0.16943865   0.16914464 
   78400    1.0016967    398.66775   0.16950159   0.16914276 
   78500    1.0079155    399.07983   0.16946065   0.16914133 
   78600    1.0138094    399.47924   0.16941444   0.16913939 
   78700    1.0163789    399.98227   0.16941223   0.16913726 
   78800    1.0107281    400.14842   0.16926752    0.1691347 
   78900    1.0012397    400.48831   0.16919658   0.16913119 
   79000    1.0121245    401.04748   0.16921835    0.1691276 
   79100    1.0135303    401.57217   0.16922553   0.16912411 
   79200    1.0109193    402.10569    0.1692364   0.16912089 
   79300    1.0051777    402.37825   0.16913756   0.16911727 
   79400    1.0108031    402.86653   0.16912953   0.16911314 
   79500    1.0150948    403.31191   0.16910352   0.16910904 
   79600     1.014827    404.04159   0.16919665    0.1691055 
   79700    1.0040865    404.79263   0.16929847   0.16910223 
   79800    1.0024329    405.68191   0.16945777   0.16910031 
   79900    1.0155445    406.29065   0.16949965   0.16909919 
   80000    1.0078731    406.89836   0.16954098   0.16909826 
   80100   0.99708278    407.48355   0.16957285   0.16909749 
   80200    1.0022528    408.01853   0.16958376    0.1690969 
   80300    1.0048194      408.567   0.16960025   0.16909641 
   80400    1.0136386    408.79569   0.16948412   0.16909574 
   80500    1.0110434    409.48421   0.16955868   0.16909459 
   80600    1.0068685    410.14297   0.16962075   0.16909422 
   80700   0.99968806    410.91755    0.1697305   0.16909447 
   80800    1.0028453    411.51921   0.16976865   0.16909517 
   80900    1.0059059    412.11007   0.16980225   0.16909611 
   81000   0.99947956    412.71734   0.16984253   0.16909742 
   81100   0.99517922    413.41283   0.16991896   0.16909917 
   81200    1.0055354    413.96138   0.16993489    0.1691013 
   81300    1.0060134    414.51337   0.16995218   0.16910361 
   81400   0.99814521    414.85298   0.16988246   0.16910551 
   81500    1.0020361    415.59336   0.16997683   0.16910767 
   81600    1.0106327       416.09    0.1699714   0.16911019 
   81700    1.0072789    416.32144   0.16985779   0.16911217 
   81800    1.0036015    416.68199   0.16979706   0.16911338 
   81900     1.018637     417.0774   0.16975067   0.16911416 
   82000    1.0047253    417.68423   0.16979034   0.16911505 
   82100    1.0133059     418.3791   0.16986565   0.16911626 
   82200    1.0103522    419.02171   0.16991959   0.16911807 
   82300    1.0125572    419.43457   0.16988034   0.16911991 
   82400    1.0167252    420.02324   0.16991231   0.16912173 
   82500    1.0110009    420.62279    0.1699486   0.16912359 
   82600    1.0093037    421.11861   0.16994294   0.16912579 
   82700   0.99998346    421.51011   0.16989525   0.16912776 
   82800    1.0008109    421.97804   0.16987844   0.16912945 
   82900    1.0088411    422.34299   0.16982026   0.16913083 
   83000    1.0034168    423.03302   0.16989278   0.16913237 
   83100    1.0036141    423.39948   0.16983533   0.16913389 
   83200   0.99917977     423.8107   0.16979595   0.16913496 
   83300    1.0025092    424.54205   0.16988477   0.16913634 
   83400    1.0087216    424.89779   0.16982326    0.1691378 
   83500    1.0065372    425.46805   0.16984753   0.16913901 
   83600    1.0072327    425.77904   0.16976836   0.16914006 
   83700    1.0133617    426.32021   0.16978105   0.16914081 
   83800    1.0043628     426.8272   0.16978011    0.1691418 
   83900    1.0091982    427.31459   0.16977139   0.16914273 
   84000    1.0098358     427.7213   0.16973067   0.16914352 
   84100    1.0041143    428.33305   0.16977132   0.16914419 
   84200    1.0054257    428.88342   0.16978758   0.16914512 
   84300    1.0096573    429.18638   0.16970596   0.16914575 
   84400    1.0076898    429.60505   0.16967024   0.16914581 
   84500    1.0020044    430.08916   0.16966042   0.16914586 
   84600    1.0105414    430.59037   0.16965736   0.16914609 
   84700     1.004157    431.00746    0.1696212     0.169146 
   84800    1.0039431    431.18662    0.1694916   0.16914519 
   84900   0.99876913    431.42873   0.16938702   0.16914359 
   85000   0.99997284    431.74639   0.16931231   0.16914139 
   85100    1.0123075    432.75712   0.16950925   0.16913981 
   85200    1.0096474    433.49929   0.16960066   0.16913923 
   85300    1.0185325    433.99097   0.16959397   0.16913889 
   85400   0.99964344    434.53988   0.16960963   0.16913865 
   85500    1.0061697    434.97186   0.16957967   0.16913813 
   85600    1.0120823      435.364   0.16953427   0.16913753 
   85700    1.0049863    435.84983   0.16952541    0.1691368 
   85800    1.0051447    436.41065   0.16954571   0.16913622 
   85900   0.99963893    436.81509   0.16950527   0.16913532 
   86000    1.0005506    437.23273   0.16947005   0.16913409 
   86100     1.001578     437.9286   0.16954263   0.16913319 
   86200    1.0159591    438.56434   0.16959178   0.16913272 
   86300    1.0047966    439.21828   0.16964785   0.16913262 
   86400    1.0019699    439.60843   0.16960202   0.16913257 
   86500   0.99625646    440.27722   0.16966367   0.16913269 
   86600     1.001764    440.75849     0.169653   0.16913288 
   86700    1.0038123    441.20196   0.16962782   0.16913285 
   86800    1.0007875    441.68346    0.1696173    0.1691329 
   86900    1.0123771    442.11132   0.16958624   0.16913266 
   87000     1.003898     442.6612   0.16960199   0.16913245 
   87100    1.0093604    443.27826   0.16964342   0.16913242 
   87200    1.0039609    443.85609   0.16966976   0.16913258 
   87300    1.0006222    444.54813   0.16973965   0.16913314 
   87400    1.0032972    445.20951   0.16979768   0.16913418 
   87500    1.0080056    445.81346    0.1698337   0.16913554 
   87600    1.0016413    446.20951   0.16979053   0.16913675 
   87700     1.008941    446.90397   0.16986088   0.16913815 
   87800    1.0061115    447.35877   0.16984008   0.16913953 
   87900   0.99794642    447.97512   0.16988059   0.16914105 
   88000   0.99777436    448.36173   0.16983399   0.16914254 
   88100    1.0117202    448.83052   0.16981858   0.16914396 
   88200    1.0004787    449.30667     0.169806   0.16914511 
   88300    1.0013848       449.52   0.16969422   0.16914597 
   88400    1.0086115    449.92897   0.16965648   0.16914629 
   88500    1.0011455    450.58284   0.16971105    0.1691467 
   88600    1.0081211     451.2569    0.1697731   0.16914755 
   88700    1.0005407    451.76738   0.16977354   0.16914855 
   88800    1.0041047    452.20834   0.16974788   0.16914943 
   88900    1.0067379    452.64381   0.16972021   0.16915012 
   89000     1.007563    453.10477   0.16970216   0.16915058 
   89100    1.0112271    453.53208   0.16967156   0.16915095 
   89200    1.0025755    453.97315   0.16964617   0.16915113 
   89300    1.0016034    454.50714   0.16965552   0.16915132 
   89400    1.0104681     455.2751   0.16975209    0.1691518 
   89500     0.996741    455.96674   0.16982002   0.16915296 
   89600    1.0015408    456.43841   0.16980595   0.16915422 
   89700    1.0064962    456.95608   0.16980902   0.16915529 
   89800    1.0055357    457.26289   0.16973381   0.16915622 
   89900    1.0107031    457.95156   0.16980035   0.16915728 
   90000    1.0088701    458.46691   0.16980256   0.16915835 
   90100    1.0115265    458.98276   0.16980494   0.16915943 
   90200    1.0059955    459.39723   0.16976985   0.16916048 
   90300    1.0142975    459.79206    0.1697276   0.16916128 
   90400    1.0044651    460.30215   0.16972793   0.16916197 
   90500   0.99939504    460.71079    0.1696909   0.16916248 
   90600   0.99569049     461.2595   0.16970548   0.16916277 
   90700    1.0072802    461.68516   0.16967481   0.16916315 
   90800    1.0118228     462.1838     0.169671   0.16916344 
   90900   0.99809972    462.76849   0.16969875   0.16916386 
   91000    1.0102123      463.123   0.16964213   0.16916418 
   91100    1.0093497    463.53632   0.16960714   0.16916413 
   91200   0.99949529    463.95944   0.16957582   0.16916392 
   91300    1.0002344    464.45017   0.16956925   0.16916345 
   91400    1.0057074    464.86839   0.16953625   0.16916295 
   91500     1.004222    465.51491   0.16958649   0.16916249 
   91600    1.0038288    465.87396   0.16953201   0.16916193 
   91700    1.0061676    466.46848   0.16956324    0.1691616 
   91800    1.0077526     467.2333   0.16965625   0.16916142 
   91900    1.0062728    467.94302   0.16972906   0.16916181 
   92000    1.0083818    468.58275   0.16977636   0.16916278 
   92100    1.0046335    469.32224   0.16985966   0.16916412 
   92200    1.0076655    470.05905   0.16994181   0.16916588 
   92300    1.0036357    470.45878   0.16990205   0.16916782 
   92400     1.015204    470.86488   0.16986468   0.16916959 
   92500    1.0060734    471.28082   0.16983093   0.16917093 
   92600    1.0005423    471.76533   0.16982193   0.16917223 
   92700    1.0073333    472.40626    0.1698692    0.1691737 
   92800    1.0090333    472.78363   0.16982171   0.16917501 
   92900   0.99785267    473.41328   0.16986483   0.16917637 
   93000   0.99438288    474.06675    0.1699164   0.16917821 
   93100   0.99645845     474.4921   0.16988618   0.16917994 
   93200    1.0098108    474.99502   0.16988377   0.16918147 
   93300    1.0136424    475.54823   0.16989933   0.16918315 
   93400     1.014533    476.04198   0.16989364   0.16918491 
   93500    1.0092879     476.5772   0.16990274   0.16918662 
   93600    1.0098734    477.05243   0.16989047   0.16918831 
   93700    1.0147115    477.52146   0.16987601   0.16918984 
   93800    1.0099309    477.89675   0.16982827   0.16919125 
   93900    1.0076394    478.44253   0.16984115   0.16919257 
   94000    1.0072215    478.81971   0.16979422   0.16919381 
   94100     1.008173    479.23738   0.16976174   0.16919468 
   94200    1.0065048    479.56158   0.16969624   0.16919527 
   94300    1.0048138    479.97371   0.16966197   0.16919556 
   94400   0.99847738     480.4304    0.1696435   0.16919571 
   94500    1.0079137    481.03253   0.16967638   0.16919586 
   94600    1.0143427    481.56308   0.16968396   0.16919617 
   94700    1.0014124    481.99598   0.16965716   0.16919641 
   94800    1.0113942    482.58167   0.16968413   0.16919658 
   94900    1.0006156    482.92827   0.16962707   0.16919676 
   95000    1.0061464    483.03949   0.16948754   0.16919609 
   95100    1.0044859    483.61496   0.16951103   0.16919529 
   95200    1.0024333    484.13997   0.16951679   0.16919456 
   95300   0.99449768    484.64461   0.16951543   0.16919382 
   95400     1.003363    484.98438   0.16945646   0.16919284 
   95500    1.0059944    485.45355   0.16944278   0.16919174 
   95600    1.0039604    485.96169   0.16944271   0.16919039 
   95700    1.0068079    486.57356   0.16947877   0.16918937 
   95800     1.011243    487.21298   0.16952435   0.16918872 
   95900    1.0018924    487.65639    0.1695017   0.16918799 
   96000    1.0053416    488.29913   0.16954831   0.16918735 
   96100     1.011066    488.82953   0.16955585   0.16918701 
   96200    1.0108426    489.41582   0.16958275   0.16918683 
   96300      1.01365    489.70785   0.16950774   0.16918624 
   96400    1.0105524    490.16351   0.16948946   0.16918555 
   96500   0.99870169    490.60827   0.16946745   0.16918472 
   96600    1.0141628    491.05097   0.16944478   0.16918361 
   96700    1.0113214    491.40713   0.16939232   0.16918242 
   96800    1.0057378    491.94468   0.16940244   0.16918104 
   96900    1.0016178    492.31686   0.16935565    0.1691796 
   97000    1.0015414    492.71263   0.16931705   0.16917775 
   97100    1.0036437    493.41902   0.16938518   0.16917624 
   97200     1.003505    493.76035   0.16932797   0.16917456 
   97300    1.0146014    494.32265   0.16934658   0.16917292 
   97400    1.0043914    494.66254   0.16928903   0.16917121 
   97500    1.0062828    495.13745   0.16927776    0.1691693 
   97600     1.008026    495.45348   0.16921225   0.16916699 
   97700    1.0009268    495.81318   0.16916178   0.16916445 
   97800    1.0100741     496.2377    0.1691335   0.16916178 
   97900    1.0073462    496.50769   0.16905267   0.16915869 
   98000    1.0069865    497.22788   0.16912513   0.16915561 
   98100    1.0106211    497.76127   0.16913397   0.16915288 
   98200   0.99778807     497.9687   0.16903215    0.1691498 
   98300    1.0095421     498.4548   0.16902502   0.16914645 
   98400    1.0064471    498.85305   0.16898816   0.16914292 
   98500    1.0005173    499.35206   0.16898547   0.16913931 
   98600    1.0073879    500.30394   0.16913588   0.16913631 
   98700    1.0182028    500.83875   0.16914514   0.16913356 
   98800     1.018036    501.49887   0.16919665   0.16913132 
   98900    1.0126727     502.0198   0.16920115     0.169129 
   99000    1.0051396    502.72839   0.16926882   0.16912701 
   99100    1.0044218     503.5516   0.16937491   0.16912553 
   99200    1.0053082    504.34804   0.16947179    0.1691247 
   99300    1.0075841      504.914    0.1694911   0.16912421 
   99400    1.0040253    505.64248   0.16956488   0.16912411 
   99500    1.0063231    506.22979   0.16959122   0.16912426 
   99600    1.0018439    506.63982   0.16955817   0.16912432 
   99700    1.0084152     507.0092    0.1695116   0.16912429 
   99800   0.99647728    507.50957   0.16950887   0.16912388 
   99900    1.0089806     508.0929   0.16953383   0.16912359 
  100000    1.0092031    508.63638   0.16954546   0.16912347 
Loop time of 451.353 on 1 procs for 100000 steps with 8000 atoms

Performance: 95712.228 tau/day, 221.556 timesteps/s
99.6% CPU use with 1 MPI tasks x no OpenMP threads

MPI task timing breakdown:
Section |  min time  |  avg time  |  max time  |%varavg| %total
---------------------------------------------------------------
Pair    | 293.43     | 293.43     | 293.43     |   0.0 | 65.01
Neigh   | 138.19     | 138.19     | 138.19     |   0.0 | 30.62
Comm    | 6.844      | 6.844      | 6.844      |   0.0 |  1.52
Output  | 0.79485    | 0.79485    | 0.79485    |   0.0 |  0.18
Modify  | 8.4369     | 8.4369     | 8.4369     |   0.0 |  1.87
Other   |            | 3.651      |            |       |  0.81

Nlocal:    8000 ave 8000 max 8000 min
Histogram: 1 0 0 0 0 0 0 0 0 0
Nghost:    7199 ave 7199 max 7199 min
Histogram: 1 0 0 0 0 0 0 0 0 0
Neighs:    217310 ave 217310 max 217310 min
Histogram: 1 0 0 0 0 0 0 0 0 0

Total # of neighbors = 217310
Ave neighs/atom = 27.1638
Neighbor list builds = 14405
Dangerous builds = 0
Total wall time: 0:07:53
