LAMMPS (7 Aug 2019)
# 3d Lennard-Jones melt

units		lj
atom_style	atomic

lattice		fcc 0.8442
Lattice spacing in x,y,z = 1.6796 1.6796 1.6796
region		box block 0 10 0 10 0 10
create_box	1 box
Created orthogonal box = (0 0 0) to (16.796 16.796 16.796)
  1 by 1 by 1 MPI processor grid
create_atoms	1 box
Created 4000 atoms
  create_atoms CPU = 0.000749111 secs
mass		1 1.0

velocity	all create 3.0 87287

pair_style	lj/cut 2.5
pair_coeff	1 1 1.0 1.0 2.5

neighbor	0.3 bin
neigh_modify	every 20 delay 0 check no

fix		1 all npt temp 1.0 1.0 1.0 iso 0.4 0.4 10.0

dump		id all atom 100 dump.lammpstrj

thermo		100
run		100000
Neighbor list info ...
  update every 20 steps, delay 0 steps, check no
  max neighbors/atom: 2000, page size: 100000
  master list distance cutoff = 2.8
  ghost atom cutoff = 2.8
  binsize = 1.4, bins = 12 12 12
  1 neighbor lists, perpetual/occasional/extra = 1 0 0
  (1) pair lj/cut, perpetual
      attributes: half, newton on
      pair build: half/bin/atomonly/newton
      stencil: half/bin/3d/newton
      bin: standard
Per MPI rank memory allocation (min/avg/max) = 4.375 | 4.375 | 4.375 Mbytes
Step Temp E_pair E_mol TotEng Press Volume 
       0            3   -6.7733681            0   -2.2744931   -3.7033504    4738.2137 
     100    1.5038421   -4.8309043            0    -2.575705     4.752155    4812.1558 
     200    1.3059716   -4.8838985            0   -2.9254308    3.1135761    4977.8006 
     300    1.1488061   -4.8809486            0   -3.1581702    2.1901791    5103.2033 
     400    1.0518085   -4.8950135            0   -3.3176951    1.3926063    5208.0244 
     500   0.98466308   -4.8938945            0   -3.4172691   0.92568711    5283.0889 
     600   0.94538787   -4.8840735            0   -3.4663462   0.69202131    5335.3596 
     700   0.93594882   -4.8706212            0   -3.4670489   0.51651763    5371.9324 
     800   0.92365703   -4.8060712            0   -3.4209321   0.70602138     5398.636 
     900   0.95192135   -4.7786304            0   -3.3511053    0.7339383    5423.3114 
    1000   0.98352543    -4.757567            0   -3.2826476   0.67698344    5449.7807 
    1100    1.0016088   -4.7242421            0   -3.2222045   0.69791695     5479.362 
    1200    1.0127352   -4.6911178            0   -3.1723949   0.72443938    5512.4189 
    1300     1.004224   -4.6415732            0   -3.1356138   0.72654467    5547.8608 
    1400    1.0025259   -4.6107537            0   -3.1073408   0.68919054    5584.1432 
    1500     1.004519   -4.5922216            0   -3.0858198    0.6320022    5617.9553 
    1600    1.0118787   -4.5871328            0   -3.0696943   0.47533799    5649.1658 
    1700   0.99605345   -4.5447649            0   -3.0510583    0.5866203    5676.0732 
    1800   0.99263574   -4.5209843            0   -3.0324029   0.55207457     5700.354 
    1900     0.981872   -4.4848745            0   -3.0124347   0.57066534    5721.1943 
    2000    1.0023903   -4.4952677            0   -2.9920582   0.48516894    5739.8001 
    2100   0.99677139   -4.4690657            0   -2.9742824   0.59709211     5756.076 
    2200    1.0002595   -4.4632866            0   -2.9632725   0.55300502    5772.4402 
    2300    1.0062331   -4.4646555            0   -2.9556832   0.43576759    5788.8444 
    2400    0.9874706   -4.4309011            0   -2.9500655   0.52238884     5802.635 
    2500    0.9799232   -4.4133985            0   -2.9438812   0.53872087    5815.4539 
    2600   0.99589341   -4.4284214            0   -2.9349548   0.43784123    5827.9104 
    2700   0.99806912    -4.419354            0   -2.9226246   0.39324043    5838.4006 
    2800     1.000737   -4.4122844            0   -2.9115542   0.39720342    5846.0315 
    2900    1.0069296   -4.4124912            0   -2.9024743   0.46640769    5852.0173 
    3000    1.0051525   -4.4053492            0   -2.8979974   0.46874186    5858.9567 
    3100    1.0112763   -4.4169408            0   -2.9004055   0.33561164    5866.0401 
    3200    0.9982793   -4.4006296            0    -2.903585   0.37464737    5869.9497 
    3300    0.9898317   -4.3883607            0   -2.9039844   0.46695022    5872.2651 
    3400    1.0023814   -4.4036784            0   -2.9004823   0.35071081    5874.9387 
    3500    0.9951029   -4.3885974            0   -2.8963163   0.43129308    5875.2114 
    3600    1.0147078   -4.4148863            0   -2.8932051   0.38202101    5875.5257 
    3700    1.0027485   -4.3958946            0   -2.8921478    0.4397907    5876.7523 
    3800   0.99309545   -4.3864064            0   -2.8971357    0.4424214    5878.9013 
    3900    1.0033458   -4.4088421            0   -2.9041996   0.36322433    5880.6479 
    4000   0.99316538   -4.4007546            0    -2.911379   0.35349425    5880.4932 
    4100   0.97885614   -4.3824165            0   -2.9144994   0.45466002    5878.6234 
    4200   0.98783511   -4.3911001            0   -2.9097179   0.44465335    5877.1419 
    4300    1.0070189   -4.4119055            0   -2.9017549   0.36615955    5876.0803 
    4400    1.0113892   -4.4114685            0   -2.8947639   0.42884057    5875.4538 
    4500   0.99973231   -4.3911104            0   -2.8918869   0.44660156    5876.6371 
    4600    1.0113501   -4.4087939            0   -2.8921481   0.36521708     5878.955 
    4700    1.0040796   -4.4013162            0   -2.8955734   0.36648463    5881.7154 
    4800   0.99246157   -4.3867413            0   -2.8984212   0.40157703    5883.7523 
    4900   0.98834308   -4.3815709            0   -2.8994269   0.45580783     5884.954 
    5000   0.99023483   -4.3834407            0   -2.8984598    0.4243783    5885.4215 
    5100   0.99654723   -4.3854381            0    -2.890991   0.44571431    5885.6949 
    5200    1.0037301   -4.3863789            0   -2.8811601   0.42621384      5888.96 
    5300     1.011526   -4.3903513            0   -2.8734416   0.38323993    5894.0747 
    5400    1.0021239   -4.3731778            0   -2.8703677   0.41825625    5899.6363 
    5500   0.99903852   -4.3680882            0   -2.8699051   0.40303072    5905.0175 
    5600    1.0045866   -4.3754382            0   -2.8689351   0.35325209    5910.1262 
    5700    1.0030855   -4.3728654            0   -2.8686132   0.39877375    5912.9138 
    5800   0.99967711   -4.3701547            0   -2.8710139   0.43234686    5914.8141 
    5900   0.99529386   -4.3655486            0    -2.872981   0.40183916    5917.4502 
    6000    1.0043105   -4.3791046            0   -2.8730155   0.28695579    5918.3858 
    6100   0.99317098   -4.3601975            0   -2.8708135   0.41807313    5914.9687 
    6200   0.99117294    -4.354595            0   -2.8682073   0.40961728    5911.4766 
    6300    1.0126344   -4.3809104            0   -2.8623385   0.35471555    5908.5349 
    6400    1.0025303   -4.3655783            0   -2.8621589   0.41029891    5905.3587 
    6500    1.0190368   -4.3960751            0    -2.867902   0.32193708    5901.8409 
    6600   0.99534446   -4.3748278            0   -2.8821844   0.46330334    5897.8264 
    6700     1.000162   -4.3992736            0   -2.8994057   0.34256157    5895.2347 
    6800   0.98706966   -4.3910846            0   -2.9108503   0.37020982    5890.8693 
    6900   0.98271044   -4.3885907            0   -2.9148936   0.34588134    5884.8226 
    7000   0.99548496   -4.4026873            0   -2.9098332   0.43746585    5877.2404 
    7100   0.99255748   -4.3876121            0   -2.8991481   0.45486551    5871.9055 
    7200   0.99992832   -4.3887287            0   -2.8892111   0.53559537    5868.3352 
    7300    1.0123986   -4.4039253            0   -2.8857071   0.50615342    5868.9901 
    7400    1.0113642   -4.4078169            0   -2.8911498   0.41106599    5874.9229 
    7500   0.98725722   -4.3830136            0    -2.902498   0.44935383    5881.0884 
    7600   0.98899396    -4.396683            0   -2.9135629    0.3670762    5884.9271 
    7700   0.97842305   -4.3871078            0   -2.9198402   0.41368157    5885.1328 
    7800    1.0027178   -4.4202527            0    -2.916552   0.32373434    5883.8784 
    7900    1.0045588   -4.4104283            0   -2.9039667   0.37325355    5881.0736 
    8000    1.0006731   -4.3884247            0   -2.8877904   0.43275103    5879.5498 
    8100    1.0132716   -4.3905486            0   -2.8710211   0.41909897    5880.2482 
    8200    1.0233696   -4.3980415            0   -2.8633708   0.40136638    5883.3763 
    8300    1.0155634   -4.3902114            0   -2.8672472   0.42092416    5888.4418 
    8400   0.99786097   -4.3859155            0   -2.8894982   0.39101084    5894.0919 
    8500   0.97473789   -4.3819651            0   -2.9202238   0.37722386    5897.6818 
    8600   0.97744885   -4.3958142            0   -2.9300075   0.32883168      5897.55 
    8700   0.98024487   -4.3938571            0   -2.9238574   0.32745682    5892.2377 
    8800   0.99605528   -4.4046383            0   -2.9109289   0.35509636    5881.9273 
    8900   0.99273702   -4.3865147            0   -2.8977814   0.46346326     5871.203 
    9000    1.0199841    -4.419845            0   -2.8902513   0.37084495    5862.8036 
    9100    1.0069631   -4.4009115            0   -2.8908445   0.48929563    5856.6542 
    9200    1.0185163   -4.4297263            0   -2.9023338   0.36293596    5854.8099 
    9300     1.006746   -4.4282485            0    -2.918507   0.35719996    5855.3847 
    9400   0.99354644   -4.4284474            0   -2.9385004   0.31917281     5856.098 
    9500   0.97413141   -4.4143261            0   -2.9534943   0.37384709     5854.265 
    9600   0.98390601   -4.4309522            0   -2.9554621   0.31033954    5849.3115 
    9700   0.98899474   -4.4109939            0   -2.9278727   0.47239905    5842.7702 
    9800    1.0078279   -4.3983867            0   -2.8870227   0.54386227    5840.1474 
    9900    1.0216085   -4.4114543            0   -2.8794246   0.48432387    5844.4661 
   10000    1.0054796   -4.3966658            0   -2.8888234    0.5217441    5854.7215 
   10100    1.0072394   -4.4163922            0   -2.9059108   0.34417145       5868.7 
   10200   0.98216594   -4.3936072            0   -2.9207266   0.44417415    5882.8266 
   10300   0.97538703   -4.3908513            0   -2.9281366   0.38143745    5895.2854 
   10400   0.99233761   -4.4112571            0   -2.9231228   0.28467309    5903.3476 
   10500   0.98321579   -4.3766226            0   -2.9021676   0.37779826    5906.2537 
   10600    1.0004056   -4.3791092            0    -2.878876   0.39154968    5906.2607 
   10700    1.0161107   -4.3898821            0   -2.8660971   0.35505892    5905.0613 
   10800    1.0235256   -4.3979357            0   -2.8630311   0.34240257    5904.9694 
   10900    1.0007502   -4.3692179            0   -2.8684679    0.4929877      5905.81 
   11000   0.99888021   -4.3741715            0   -2.8762258   0.37507854    5909.6375 
   11100   0.98633412   -4.3622888            0   -2.8831575   0.44049295    5913.6975 
   11200   0.99167947   -4.3750229            0   -2.8878755   0.36056788    5916.2994 
   11300   0.99708113   -4.3855988            0    -2.890351   0.33514313    5916.1229 
   11400   0.99245822   -4.3734177            0   -2.8851026   0.40469603    5913.5898 
   11500    1.0173926   -4.3973441            0   -2.8716368   0.32519884    5909.9286 
   11600    1.0014617   -4.3617474            0   -2.8599304   0.44921857    5904.4089 
   11700    1.0155126   -4.3758146            0   -2.8529266   0.42913033    5900.1673 
   11800    1.0171148   -4.3820769            0   -2.8567862   0.42098642    5898.8647 
   11900     1.003272    -4.378487            0   -2.8739552   0.41131722    5900.4216 
   12000     1.006443   -4.4038908            0   -2.8946036   0.24928469    5901.7816 
   12100   0.98450327   -4.3835259            0   -2.9071401   0.41116615    5898.9151 
   12200    0.9925869   -4.3984221            0    -2.909914   0.40148661    5894.9166 
   12300   0.98343879   -4.3781198            0   -2.9033304   0.42575055     5890.716 
   12400    1.0060174   -4.3978491            0   -2.8892003   0.34407151    5885.5917 
   12500    1.0108348   -4.3845037            0   -2.8686306   0.45117289    5880.7257 
   12600    1.0174382   -4.3736126            0   -2.8478369   0.50354908    5879.3638 
   12700     1.024378   -4.3712399            0   -2.8350569   0.57980382    5882.2793 
   12800      1.03575   -4.3881258            0   -2.8348893   0.44522345    5892.5153 
   12900    1.0035495   -4.3661455            0   -2.8611975   0.44337068     5907.585 
   13000   0.98798026   -4.3699267            0   -2.8883268   0.35805117    5924.1514 
   13100   0.99049102   -4.3842577            0   -2.8988926   0.24532047    5936.9607 
   13200   0.96935522   -4.3499198            0   -2.8962505   0.37666996    5941.8149 
   13300   0.98343524   -4.3529518            0   -2.8781678   0.34765327    5940.4845 
   13400    1.0104361   -4.3698953            0   -2.8546201   0.35430157    5935.5216 
   13500    1.0148557   -4.3619978            0   -2.8400949   0.40137031    5930.2632 
   13600    1.0262685   -4.3741027            0   -2.8350847   0.35026437    5927.1272 
   13700     1.008757   -4.3527774            0   -2.8400202   0.40974559    5925.8086 
   13800    1.0109207   -4.3692133            0   -2.8532114   0.33804458     5926.858 
   13900    1.0101329   -4.3854596            0    -2.870639   0.29741238    5927.4602 
   14000   0.98159529   -4.3590108            0    -2.886986   0.39948943    5924.7065 
   14100   0.98952815    -4.380912            0   -2.8969908   0.35324815     5917.209 
   14200   0.99571326    -4.397728            0   -2.9045315   0.30736684    5904.8084 
   14300    0.9938282   -4.3994797            0   -2.9091101   0.38881046    5889.8922 
   14400   0.99841356   -4.4122157            0   -2.9149698   0.38803773    5873.4222 
   14500    1.0012095   -4.4224741            0   -2.9210353   0.42298432    5856.1141 
   14600    1.0019182   -4.4294462            0   -2.9269446   0.49938153    5842.4593 
   14700    1.0054019   -4.4460556            0   -2.9383298   0.40204701    5834.2241 
   14800   0.98975374   -4.4330694            0   -2.9488099   0.40979823    5829.1302 
   14900   0.97969347   -4.4274084            0   -2.9582356   0.50649198    5824.4306 
   15000   0.98652692   -4.4380892            0   -2.9586688   0.45009105    5823.9115 
   15100   0.99493441   -4.4439555            0    -2.951927   0.45939791    5825.9829 
   15200    1.0084716   -4.4473313            0    -2.935002   0.36987322     5831.349 
   15300    1.0128869    -4.435471            0   -2.9165205   0.46096043    5837.6964 
   15400    1.0091143   -4.4164644            0   -2.9031713   0.49303271    5848.1913 
   15500    0.9996028   -4.3960268            0   -2.8969974   0.46613867    5864.4364 
   15600    1.0131967    -4.410156            0   -2.8907409   0.34671795    5883.4822 
   15700    1.0085412   -4.3924023            0   -2.8799687   0.35700168     5900.097 
   15800    1.0004543   -4.3564504            0    -2.856144   0.47008164    5914.6197 
   15900    1.0136123   -4.3527497            0   -2.8327114   0.44746143    5929.3778 
   16000    1.0201698   -4.3518176            0   -2.8219455   0.33081861    5945.0021 
   16100    1.0132679   -4.3425921            0   -2.8230702   0.32307396    5958.1085 
   16200    1.0044412   -4.3360386            0   -2.8297535   0.32197306    5967.7073 
   16300   0.99074209   -4.3226021            0   -2.8368605   0.31191267      5973.38 
   16400   0.99422531   -4.3336306            0   -2.8426655   0.31338312    5973.5051 
   16500    0.9961614   -4.3364288            0   -2.8425602     0.324137    5969.9173 
   16600   0.99687097   -4.3313386            0    -2.836406   0.36085688    5962.9145 
   16700    1.0064536   -4.3359975            0   -2.8266945   0.44825861    5953.7114 
   16800    1.0078315   -4.3328878            0   -2.8215185   0.41992565    5946.4262 
   16900    1.0106768   -4.3443968            0   -2.8287606   0.40535552    5938.6423 
   17000    1.0081441   -4.3605927            0   -2.8487547   0.40965275    5930.7127 
   17100   0.99574409   -4.3659776            0   -2.8727349   0.38625261       5923.9 
   17200    1.0012405   -4.3882709            0   -2.8867855   0.31791355     5916.442 
   17300   0.98371652   -4.3650384            0   -2.8898325   0.33493105    5907.4174 
   17400   0.99959499   -4.3839741            0   -2.8849565   0.36820776    5894.3935 
   17500   0.98206662   -4.3494334            0   -2.8767018   0.50773812    5881.2268 
   17600    1.0198897   -4.3983438            0   -2.8688916   0.47049631    5870.3427 
   17700    1.0050428   -4.3759205            0   -2.8687331   0.59962683    5864.2755 
   17800   0.99630021   -4.3844778            0   -2.8904011   0.52095866    5865.0117 
   17900   0.98503404   -4.4021382            0   -2.9249565   0.44548877    5868.6745 
   18000   0.98276917   -4.4123833            0   -2.9385981   0.34225944    5873.1967 
   18100   0.98037804    -4.407172            0   -2.9369725   0.36838042    5875.2695 
   18200   0.99585793   -4.4168681            0   -2.9234547   0.32754278    5874.6465 
   18300   0.98830665   -4.3857032            0   -2.9036139   0.48729653    5871.8265 
   18400    1.0007816   -4.3875825            0   -2.8867854   0.44914007    5870.7113 
   18500    1.0107815   -4.3961237            0   -2.8803304   0.47075093    5870.5514 
   18600    1.0114167   -4.3991226            0   -2.8823768   0.45328076    5872.4407 
   18700    1.0030006   -4.3957594            0   -2.8916346   0.40522104    5877.7658 
   18800   0.98889918   -4.3875592            0   -2.9045813   0.45363238    5883.5819 
   18900   0.97021872   -4.3708008            0   -2.9158366   0.48511236     5889.733 
   19000   0.98526649   -4.4012848            0   -2.9237545   0.31050134    5892.8946 
   19100   0.97380733   -4.3858156            0   -2.9254697   0.39053072    5890.6336 
   19200   0.99026958   -4.3962133            0   -2.9111803   0.35073054    5884.5935 
   19300    1.0101669   -4.4029726            0   -2.8881012   0.33665341    5875.6732 
   19400    1.0167859   -4.3961591            0   -2.8713616   0.42682256    5867.0775 
   19500    1.0121024   -4.3847219            0   -2.8669478   0.47034132    5862.0586 
   19600    1.0194548   -4.4050947            0   -2.8762948    0.4695491    5860.5433 
   19700    1.0138826   -4.4183082            0   -2.8978645   0.41375423    5864.0959 
   19800   0.98993874   -4.4039069            0     -2.91937   0.37402658    5870.0198 
   19900   0.99675309   -4.4226383            0   -2.9278824   0.36418598    5874.4656 
   20000   0.99464271   -4.4172021            0    -2.925611   0.35358236    5878.1784 
   20100   0.98667554   -4.3972731            0   -2.9176298   0.44466801    5879.2962 
   20200    1.0067246   -4.4143592            0   -2.9046498   0.32731028    5880.6491 
   20300   0.99221942   -4.3791843            0   -2.8912272   0.43639886    5880.5615 
   20400    1.0093255   -4.3927677            0    -2.879158   0.40882888     5879.537 
   20500    1.0209816   -4.4025255            0    -2.871436   0.38861553    5879.9011 
   20600    1.0148574   -4.3902466            0   -2.8683411   0.43494566    5882.7084 
   20700    1.0130546   -4.3941247            0   -2.8749227   0.43271974     5889.173 
   20800   0.99171644   -4.3806385            0   -2.8934358   0.38545027    5896.7501 
   20900   0.98445173   -4.3869783            0   -2.9106699   0.37973036    5901.6087 
   21000   0.97925749   -4.3856674            0   -2.9171484    0.3808087    5904.2358 
   21100   0.98794324   -4.3942152            0   -2.9126708   0.33978996    5903.0781 
   21200   0.98506984    -4.374179            0   -2.8969436   0.46243278    5898.5182 
   21300    1.0102288   -4.3925926            0   -2.8776283   0.35222908    5892.6927 
   21400    1.0047396   -4.3706655            0   -2.8639329   0.47627888    5885.5766 
   21500    1.0065115   -4.3709871            0   -2.8615972   0.51109235    5880.9121 
   21600    1.0115559   -4.3869953            0   -2.8700409   0.46494706    5880.6551 
   21700   0.99953177    -4.389409            0   -2.8904862   0.37976772     5883.973 
   21800    1.0001108   -4.4109695            0   -2.9111782   0.32373848    5886.6624 
   21900   0.98627346   -4.3964414            0    -2.917401   0.31653051    5887.5933 
   22000   0.99548293   -4.4054111            0   -2.9125601   0.30750891    5885.1926 
   22100    1.0038395   -4.4112874            0   -2.9059047   0.33672187    5878.9759 
   22200    1.0038848   -4.4050464            0   -2.8995956   0.39006142    5871.1566 
   22300    1.0198129   -4.4274179            0    -2.898081   0.33294417    5863.9713 
   22400    1.0079806   -4.4100928            0   -2.8984999   0.41431211    5858.1564 
   22500     1.011959   -4.4229658            0   -2.9054068    0.4092627    5855.2889 
   22600   0.99608067   -4.4133737            0   -2.9196262   0.48225787    5855.6065 
   22700   0.98094819   -4.4127683            0   -2.9417139   0.46019523    5858.1513 
   22800   0.97422255   -4.4172383            0   -2.9562698   0.35102812    5862.8211 
   22900   0.97140009   -4.4132126            0   -2.9564767   0.36775073    5864.6623 
   23000   0.97959792   -4.4005286            0   -2.9314991   0.45330294    5863.9595 
   23100   0.99057668   -4.3842744            0   -2.8987809   0.51592568    5862.3586 
   23200    1.0124141   -4.4073947            0   -2.8891532   0.46297888    5863.3771 
   23300    1.0041719   -4.3980995            0   -2.8922182    0.4735085    5867.5994 
   23400   0.99453426   -4.3918116            0   -2.9003832   0.42120185    5874.1747 
   23500    1.0009483   -4.4083944            0   -2.9073473   0.40980148    5881.4818 
   23600   0.98238276   -4.3839096            0   -2.9107038   0.40104178    5890.3078 
   23700   0.99018091   -4.3919365            0   -2.9070364   0.34735939    5896.0895 
   23800   0.98892834   -4.3738908            0   -2.8908691   0.41710699    5897.7049 
   23900    1.0081076   -4.3792727            0   -2.8674894   0.38269148    5897.7846 
   24000    1.0174818   -4.3765745            0   -2.8507334   0.44347345    5899.1529 
   24100    1.0099629   -4.3613772            0   -2.8468117   0.42805731    5903.5482 
   24200    1.0241578   -4.3875175            0   -2.8516648   0.30502225     5909.853 
   24300    1.0036349   -4.3672832            0   -2.8622073   0.37681625    5915.0267 
   24400     0.999218   -4.3715777            0   -2.8731254   0.37847772    5918.2774 
   24500    1.0017539   -4.3804037            0   -2.8781485   0.37164396    5921.9005 
   24600   0.98069603   -4.3479032            0   -2.8772269   0.41085523    5926.0166 
   24700    1.0049626   -4.3799846            0   -2.8729176   0.29781334    5928.6718 
   24800   0.98880864   -4.3517988            0   -2.8689566   0.35468215    5926.8942 
   24900    1.0057891   -4.3744199            0   -2.8661134   0.36787631    5920.6089 
   25000    1.0118064   -4.3825021            0   -2.8651719   0.35438192    5912.9239 
   25100    1.0055352   -4.3750794            0   -2.8671537   0.39092517    5904.7788 
   25200    1.0015176    -4.375026            0   -2.8731251   0.43480668    5896.4045 
   25300   0.99646054   -4.3790498            0   -2.8847327   0.43007955    5889.5564 
   25400    1.0042545   -4.4071703            0   -2.9011651   0.36948345    5884.4545 
   25500   0.98893534    -4.401783            0   -2.9187508   0.40409503    5879.0425 
   25600   0.98039906   -4.4017597            0   -2.9315288   0.38162134    5873.1425 
   25700    1.0091034   -4.4455181            0   -2.9322414   0.21685123     5865.197 
   25800   0.99581999   -4.4151258            0   -2.9217692   0.44857391    5854.1596 
   25900    1.0279781   -4.4349601            0   -2.8933785   0.43148385    5845.3888 
   26000    1.0246145   -4.4056454            0   -2.8691079   0.55966087    5841.4918 
   26100    1.0195072   -4.3973458            0   -2.8684673   0.53199145    5846.2827 
   26200    1.0057628   -4.3934487            0   -2.8851817   0.47263243    5858.0104 
   26300   0.99523765   -4.3962582            0    -2.903775   0.37155591    5873.0121 
   26400   0.97874871   -4.3792764            0   -2.9115203    0.3870774    5887.2695 
   26500   0.98833765   -4.3905927            0   -2.9084568   0.38927907    5899.3107 
   26600   0.98731571   -4.3804578            0   -2.8998545   0.39036782    5909.3492 
   26700    1.0030546   -4.3921292            0   -2.8879235    0.3243324    5916.9272 
   26800   0.99922999   -4.3757609            0   -2.8772906   0.35005827    5920.9643 
   26900   0.99372497   -4.3554922            0   -2.8652774   0.39898797    5921.9529 
   27000   0.99384426   -4.3436809            0   -2.8532872   0.47952003    5921.6153 
   27100   0.99735708   -4.3418678            0   -2.8462062    0.4649492    5923.7604 
   27200    1.0062959   -4.3546271            0   -2.8455606   0.43549428    5927.7183 
   27300   0.99874172   -4.3461713            0   -2.8484333   0.38260843    5934.7256 
   27400    1.0068815    -4.360811            0   -2.8508663   0.35009243    5942.1324 
   27500   0.99833626    -4.351273            0    -2.854143   0.36418648    5947.1704 
   27600   0.99116687   -4.3408249            0   -2.8544463   0.36082589    5949.7068 
   27700    1.0002806    -4.349507            0   -2.8494613   0.36337163    5949.3813 
   27800   0.99600734   -4.3346493            0   -2.8410118   0.38606369    5945.8626 
   27900    1.0127869   -4.3497811            0   -2.8309806   0.38942725    5939.0562 
   28000    1.0067252   -4.3287833            0   -2.8190731   0.49296136    5932.0696 
   28100    1.0154995   -4.3341303            0   -2.8112619   0.48769169     5927.597 
   28200    1.0288993    -4.364346            0   -2.8213828   0.43583828    5925.4513 
   28300    1.0002993   -4.3513593            0   -2.8512855   0.40540911     5926.509 
   28400   0.99052484   -4.3552859            0   -2.8698701     0.384946    5930.3569 
   28500   0.98525229   -4.3545429            0   -2.8770339   0.34885702    5933.2871 
   28600   0.98809398   -4.3584274            0   -2.8766569    0.3484307    5931.7969 
   28700   0.97983207   -4.3390158            0   -2.8696351   0.45909603    5925.2317 
   28800   0.99721328   -4.3553597            0   -2.8599137   0.44189569     5914.633 
   28900    1.0064373   -4.3589777            0   -2.8496992   0.37930372    5901.9938 
   29000    1.0278861   -4.3823605            0   -2.8409168   0.47563076    5888.8319 
   29100    1.0241356   -4.3821246            0   -2.8463052   0.51141158    5880.6996 
   29200    1.0160011   -4.3998451            0   -2.8762245   0.43867764    5879.3387 
   29300   0.99379156   -4.3931857            0    -2.902871   0.36250472    5881.7153 
   29400   0.98111417   -4.3844069            0   -2.9131035   0.44651728    5882.1027 
   29500   0.98186033   -4.3890473            0    -2.916625   0.38911229    5881.3687 
   29600   0.97833626    -4.379261            0   -2.9121235   0.45475375    5878.5653 
   29700    1.0058814   -4.4077792            0   -2.8993343    0.4362585    5875.1872 
   29800   0.99528448     -4.37447            0   -2.8819165   0.50115288    5875.0845 
   29900     1.014007   -4.3890317            0   -2.8684014   0.39395249    5879.1681 
   30000    1.0139247   -4.3783242            0   -2.8578173   0.41977263    5887.0186 
   30100    1.0143125   -4.3798367            0   -2.8587483   0.39712039    5897.6778 
   30200    1.0123897   -4.3900637            0   -2.8718587   0.30335741    5909.5134 
   30300   0.98126087   -4.3737645            0   -2.9022411    0.3255656    5919.2179 
   30400   0.97799821   -4.3866282            0   -2.9199976   0.33988162    5923.9227 
   30500   0.96245375    -4.359074            0   -2.9157543   0.40960347      5924.88 
   30600   0.99844834   -4.3923829            0   -2.8950848    0.2870786      5922.37 
   30700   0.99192883   -4.3624416            0   -2.8749203   0.40211003    5915.9665 
   30800    1.0063162   -4.3737414            0   -2.8646445   0.41579042    5906.7154 
   30900    1.0085401   -4.3732966            0   -2.8608646   0.41676703    5897.2101 
   31000    1.0172583   -4.3894875            0   -2.8639816   0.39454281    5887.5201 
   31100    1.0096608   -4.3876757            0    -2.873563   0.43894823      5879.92 
   31200    1.0099231   -4.4076635            0   -2.8931575   0.44653228    5874.8607 
   31300    0.9948338   -4.4090131            0   -2.9171354   0.32792918     5871.374 
   31400   0.99643183   -4.4187882            0   -2.9245141   0.35681117    5866.4808 
   31500   0.99611651   -4.4173824            0   -2.9235812   0.42681755    5860.6704 
   31600    1.0040888   -4.4237703            0   -2.9180136   0.35222859    5855.6779 
   31700    0.9982337   -4.4090325            0   -2.9120563    0.4212328    5850.1758 
   31800   0.99907535   -4.4047634            0   -2.9065251    0.4883695    5844.8768 
   31900    1.0207814   -4.4375942            0   -2.9068049    0.3982517    5842.7744 
   32000   0.99560414   -4.4096084            0   -2.9165755   0.45385514    5844.4007 
   32100   0.98420643   -4.4178591            0   -2.9419186   0.40387406    5847.7476 
   32200   0.98479974   -4.4421423            0    -2.965312   0.27470535    5849.4845 
   32300    0.9696605   -4.4242763            0   -2.9701492   0.40675084     5847.197 
   32400   0.99215522   -4.4463628            0    -2.958502   0.32066969    5842.1298 
   32500   0.99594585   -4.4330687            0   -2.9395234   0.43291412    5833.3166 
   32600    1.0039145   -4.4330409            0   -2.9275456   0.43560124    5824.7911 
   32700     1.009399    -4.435587            0   -2.9218671   0.44945791    5818.1155 
   32800    1.0020402   -4.4262577            0   -2.9235731   0.54796103    5814.6901 
   32900    1.0051228   -4.4372385            0   -2.9299312   0.44076989    5817.0021 
   33000    1.0085098   -4.4488626            0   -2.9364761   0.41885448    5824.5111 
   33100    1.0045742   -4.4494797            0   -2.9429951   0.39102384    5837.0357 
   33200   0.97160592   -4.4044249            0   -2.9473804   0.42849625    5853.1124 
   33300    0.9866821   -4.4150532            0   -2.9354001   0.36321306    5870.3624 
   33400   0.99827846   -4.3984347            0   -2.9013914   0.38857879    5885.5607 
   33500   0.99577823   -4.3722392            0   -2.8789453   0.47564429    5900.5286 
   33600    1.0046334   -4.3785176            0   -2.8719443   0.36297805      5917.49 
   33700    0.9880926   -4.3462467            0   -2.8644783   0.40251057    5934.4227 
   33800   0.99680119   -4.3497334            0   -2.8549054   0.31308798    5949.6864 
   33900    1.0022372   -4.3456656            0   -2.8426857   0.32286902    5960.8033 
   34000   0.99919319   -4.3260505            0   -2.8276354   0.34340223     5968.003 
   34100    1.0014579   -4.3153027            0   -2.8134913   0.42896921    5971.6511 
   34200    1.0066599   -4.3166178            0   -2.8070054   0.41447743     5974.486 
   34300    1.0099081   -4.3241866            0   -2.8097031   0.35065048    5975.7651 
   34400   0.99940161   -4.3249019            0   -2.8261742   0.34085314    5974.2369 
   34500   0.98073094   -4.3298027            0   -2.8590741   0.38563015    5968.7313 
   34600   0.97675099   -4.3421097            0   -2.8773495   0.28097248    5959.5499 
   34700   0.98170539   -4.3461177            0   -2.8739278   0.37915191      5943.94 
   34800   0.99919595   -4.3594439            0   -2.8610246   0.39127535    5924.1557 
   34900    1.0063905   -4.3610861            0   -2.8518777   0.44606952    5901.1077 
   35000      1.02355   -4.3839577            0   -2.8490165   0.44858687    5880.1713 
   35100    1.0182063   -4.3900453            0   -2.8631178   0.51069446     5862.983 
   35200    1.0188462   -4.4230412            0    -2.895154    0.4118866    5853.3788 
   35300    1.0080885   -4.4265792            0   -2.9148245   0.40433139    5849.0653 
   35400   0.99397472   -4.4129602            0   -2.9223708   0.47049235    5846.9905 
   35500    1.0003505   -4.4272733            0   -2.9271226   0.40261876    5847.8912 
   35600   0.98239402    -4.402885            0   -2.9296624   0.48233568    5850.5848 
   35700   0.98774603   -4.4073535            0   -2.9261048   0.40397786    5854.5568 
   35800    1.0018341   -4.4219591            0   -2.9195836    0.4399892    5857.8262 
   35900    1.0000478   -4.4069715            0   -2.9072748   0.39816357    5863.2283 
   36000    1.0010236   -4.3930603            0   -2.8919002   0.43135574    5868.7308 
   36100    1.0134107   -4.3992699            0   -2.8795338   0.39752146    5873.5127 
   36200    1.0055247   -4.3787466            0   -2.8708367   0.48534321    5879.1952 
   36300    1.0101969   -4.3803767            0   -2.8654602   0.41608541    5887.6375 
   36400    1.0155732   -4.3868522            0   -2.8638732   0.36397108    5896.7151 
   36500    1.0087579   -4.3861829            0   -2.8734244   0.36025132    5905.9933 
   36600   0.98419125   -4.3637607            0   -2.8878429   0.37583446    5914.1851 
   36700    0.9819911   -4.3710136            0   -2.8983952   0.34918404    5918.8576 
   36800   0.99093042   -4.3841327            0   -2.8981087   0.27495361    5919.8494 
   36900   0.98941654   -4.3687675            0   -2.8850137   0.33915676    5916.4857 
   37000     1.008409   -4.3719624            0   -2.8597271   0.34270521    5908.9044 
   37100    1.0136571    -4.364149            0   -2.8440435   0.45258922    5898.6773 
   37200    1.0088884   -4.3575101            0   -2.8445559   0.52280385     5891.042 
   37300    1.0191783   -4.3874144            0   -2.8590292   0.41466219    5886.8426 
   37400    1.0144968   -4.3976471            0   -2.8762824   0.42488289    5884.4575 
   37500   0.99894112   -4.3866068            0   -2.8885697   0.41316613    5885.2232 
   37600   0.99009185   -4.3793576            0   -2.8945911   0.42953068    5885.7093 
   37700   0.99382776    -4.389317            0    -2.898948   0.38636113    5885.0348 
   37800    1.0011703   -4.3999493            0   -2.8985693   0.40690643    5883.4182 
   37900    1.0035818   -4.3996106            0   -2.8946143   0.41366214    5883.3124 
   38000   0.99648573   -4.3830419            0    -2.888687   0.45863339    5885.2045 
   38100    1.0033725   -4.3828179            0   -2.8781354   0.41000368    5888.8049 
   38200    1.0260268   -4.3975539            0   -2.8588985   0.39084891    5894.5616 
   38300    1.0203115   -4.3749921            0   -2.8449074   0.43483114    5902.0962 
   38400    1.0021276    -4.346099            0   -2.8432834   0.49185147    5911.3295 
   38500     1.014732   -4.3735735            0   -2.8518561   0.30078613    5921.9978 
   38600    1.0110077   -4.3884354            0    -2.872303     0.227415    5930.4567 
   38700    0.9783877   -4.3587931            0   -2.8915784   0.33186971    5934.0077 
   38800   0.97826247   -4.3638389            0   -2.8968121   0.33968234    5933.2682 
   38900   0.99418483   -4.3746445            0   -2.8837401   0.28606435    5928.3948 
   39000    1.0065262   -4.3665607            0   -2.8571489   0.41426718    5919.6012 
   39100    1.0144804   -4.3578589            0   -2.8365187   0.41655125    5912.0406 
   39200    1.0119304   -4.3537375            0   -2.8362214   0.48761542    5906.7775 
   39300     1.017297   -4.3713567            0   -2.8457927   0.39047968    5903.4872 
   39400    1.0095961   -4.3744043            0   -2.8603887    0.3963175     5902.255 
   39500    1.0023278    -4.380421            0   -2.8773053   0.39829526    5901.2933 
   39600    1.0144936   -4.4129169            0   -2.8915569   0.25744812    5900.6439 
   39700   0.98718074   -4.3810504            0   -2.9006494   0.39402528    5896.4736 
   39800   0.99772822   -4.4012109            0   -2.9049928   0.35207082    5889.0269 
   39900     1.000325   -4.4042879            0   -2.9041755     0.358624    5879.4847 
   40000     1.012114   -4.4157925            0    -2.898001   0.41693584    5870.0092 
   40100    1.0040545   -4.3938576            0   -2.8881523   0.46905911    5863.3674 
   40200    1.0114428   -4.3892484            0   -2.8724634   0.50722518    5860.7885 
   40300    1.0113329   -4.3780377            0   -2.8614177   0.52007546     5862.954 
   40400     1.019691   -4.3905817            0   -2.8614277   0.46412029    5870.6966 
   40500    1.0070692   -4.3859899            0   -2.8757638   0.43542952    5883.7725 
   40600   0.99365547   -4.3883482            0   -2.8982376   0.36685487    5899.2298 
   40700   0.98889053   -4.3947636            0   -2.9117987   0.25551285    5913.9882 
   40800   0.97133767   -4.3667021            0   -2.9100599   0.34579688    5923.2223 
   40900   0.98644038   -4.3713778            0   -2.8920871   0.26610576    5927.5616 
   41000   0.99434771   -4.3601551            0   -2.8690064   0.38433003     5925.743 
   41100    1.0039117    -4.364916            0   -2.8594249   0.33314656    5920.9377 
   41200    1.0014524   -4.3568946            0   -2.8550915   0.36025719    5913.8767 
   41300    1.0168609   -4.3784644            0   -2.8535545   0.34830343    5906.1639 
   41400     1.009253   -4.3714654            0   -2.8579644   0.49606506    5898.2111 
   41500   0.99872343   -4.3701559            0   -2.8724453   0.46551761    5892.8983 
   41600   0.99453368   -4.3857159            0   -2.8942883   0.35260032    5888.7861 
   41700    0.9930406   -4.3984413            0   -2.9092528   0.37728597    5882.0035 
   41800   0.98786133   -4.3942598            0   -2.9128382   0.39850274    5874.7081 
   41900   0.98983439   -4.3975729            0   -2.9131925   0.44300665    5865.9196 
   42000    1.0095257   -4.4250274            0   -2.9111175   0.35417899    5855.7384 
   42100     1.002496   -4.4150339            0   -2.9116659   0.39903568    5846.5382 
   42200    1.0110491   -4.4286852            0   -2.9124907   0.43461595    5839.9953 
   42300   0.99093878   -4.4009263            0   -2.9148897   0.53100635     5836.942 
   42400     1.013331   -4.4374799            0   -2.9178634   0.44129349    5838.2881 
   42500   0.99654352   -4.4148044            0   -2.9203628   0.45197956    5844.5902 
   42600   0.99398018     -4.41361            0   -2.9230124   0.41615259     5852.547 
   42700   0.98650183   -4.4026269            0   -2.9232441   0.43059343    5860.1074 
   42800   0.99629415   -4.4156539            0   -2.9215863   0.35563495    5865.2386 
   42900   0.99238136   -4.4040036            0   -2.9158037   0.36951531    5868.0359 
   43000   0.98794143   -4.3854983            0   -2.9039567   0.47356957    5869.5522 
   43100    1.0117268   -4.4036111            0   -2.8864002   0.42849657    5872.4037 
   43200    1.0131199   -4.3880406            0   -2.8687407   0.41037225     5878.251 
   43300    1.0090829   -4.3679094            0   -2.8546635    0.4944372     5887.419 
   43400    1.0162924    -4.375011            0   -2.8509536    0.4348613    5899.7713 
   43500    1.0153113    -4.380363            0   -2.8577769   0.33942575    5914.8264 
   43600   0.99189415   -4.3703304            0   -2.8828612   0.30515215    5927.8361 
   43700   0.97620084   -4.3733754            0   -2.9094402   0.28617941    5935.7462 
   43800   0.96949664   -4.3666173            0   -2.9127359    0.2357753     5936.109 
   43900   0.99507523   -4.3907543            0   -2.8985146   0.27044155    5925.8131 
   44000    1.0021032   -4.3787145            0   -2.8759355   0.34005617    5910.3878 
   44100    1.0046009   -4.3689461            0   -2.8624214   0.41897877    5892.8499 
   44200    1.0214567   -4.3936025            0   -2.8618006   0.44769334    5876.7105 
   44300    1.0003516   -4.3705149            0   -2.8703626   0.53047917      5864.94 
   44400    1.0249937   -4.4224078            0   -2.8853016   0.38291936    5858.9475 
   44500   0.99147551    -4.389431            0   -2.9025895   0.49288158    5856.6716 
   44600    1.0044281   -4.4191847            0   -2.9129193   0.33640004     5856.813 
   44700   0.99947176   -4.4207732            0   -2.9219404   0.33684156    5855.4378 
   44800   0.99319964   -4.4146009            0   -2.9251739   0.41850822    5852.5948 
   44900   0.98361762   -4.4009942            0   -2.9259366   0.46189595    5850.1522 
   45000   0.99345679   -4.4121255            0   -2.9223129   0.43778188    5848.5091 
   45100   0.99738297    -4.413639            0   -2.9179386   0.49010695    5847.8432 
   45200   0.99955638   -4.4127738            0   -2.9138141   0.44942338    5851.5439 
   45300    1.0069832   -4.4153332            0   -2.9052361   0.38144457    5857.1235 
   45400    1.0192671   -4.4168403            0   -2.8883219   0.32918166    5863.1777 
   45500   0.99830566   -4.3671493            0   -2.8700652   0.48539903    5870.2715 
   45600     1.013306   -4.3801699            0   -2.8605908   0.48936938     5878.876 
   45700    1.0036094   -4.3709524            0   -2.8659147   0.46683267    5891.2874 
   45800     1.004274   -4.3862638            0   -2.8802293   0.33188654    5906.7459 
   45900   0.99142688   -4.3851489            0   -2.8983804   0.33382028    5920.4529 
   46000   0.96955848   -4.3618015            0   -2.9078273   0.31901533    5929.4302 
   46100   0.98328878   -4.3801114            0    -2.905547   0.24432591    5929.5792 
   46200   0.99655413   -4.3786854            0   -2.8842279   0.31178937     5921.243 
   46300    1.0131886   -4.3725738            0   -2.8531708    0.4328752    5908.4885 
   46400    1.0226349   -4.3784931            0   -2.8449242   0.45734605    5896.5087 
   46500    1.0145195   -4.3768421            0   -2.8554434   0.48854289    5886.5503 
   46600    1.0103086    -4.387443            0   -2.8723589    0.4744936    5879.1113 
   46700    1.0115402   -4.4050084            0   -2.8880775   0.33223305    5875.1783 
   46800     1.003025   -4.4069656            0   -2.9028043   0.38280994    5870.3141 
   46900   0.99769644   -4.4128019            0   -2.9166314   0.44438033    5863.9217 
   47000    1.0049822   -4.4349102            0   -2.9278137   0.38847845    5858.8916 
   47100   0.99013937   -4.4196327            0   -2.9347949   0.43469149    5856.5112 
   47200   0.98828547   -4.4164954            0   -2.9344378   0.37456711    5856.4632 
   47300   0.99135855   -4.4134685            0   -2.9268024    0.4212472    5854.4429 
   47400    1.0153398   -4.4301778            0   -2.9075489   0.31281916    5850.9574 
   47500    1.0178271   -4.4018231            0   -2.8754642   0.51717087    5847.0042 
   47600    1.0146595   -4.3850729            0   -2.8634642   0.54861109    5848.4212 
   47700    1.0191728   -4.4009184            0   -2.8725414   0.47924499     5856.894 
   47800    1.0072891   -4.4015858            0   -2.8910298    0.4113804    5870.0163 
   47900   0.99847016   -4.4022137            0   -2.9048829   0.43337126    5885.3844 
   48000   0.97725793   -4.3756753            0   -2.9101549   0.35354396    5902.1496 
   48100   0.98662627   -4.3832675            0    -2.903698   0.32677116    5914.5046 
   48200    0.9777903   -4.3570565            0   -2.8907377   0.36019744     5921.245 
   48300    0.9961521   -4.3690259            0   -2.8751713   0.37476424    5921.9419 
   48400    1.0043357   -4.3687783            0   -2.8626515   0.41956934    5919.7393 
   48500     1.005732   -4.3671801            0   -2.8589592   0.43985242    5916.7513 
   48600    1.0059115   -4.3713922            0   -2.8629021   0.39511156    5914.3777 
   48700   0.98857804   -4.3518904            0   -2.8693941   0.49937826    5912.9735 
   48800    1.0068241   -4.3865254            0   -2.8766668   0.32632622    5912.3205 
   48900   0.99874757   -4.3792298            0    -2.881483   0.39515549    5909.6296 
   49000   0.98571548   -4.3601906            0    -2.881987   0.44669758    5905.9888 
   49100    1.0022942   -4.3855882            0   -2.8825228   0.39782367    5900.4056 
   49200    0.9963877   -4.3759101            0   -2.8817022   0.45807789    5893.8938 
   49300    1.0030005   -4.3885074            0   -2.8843828   0.43105665    5887.3125 
   49400    1.0039508   -4.3952768            0   -2.8897271   0.43539557    5880.6454 
   49500   0.99716264    -4.391186            0    -2.895816   0.42753927     5875.493 
   49600   0.99302396   -4.3897299            0   -2.9005664   0.43483336    5871.2196 
   49700    0.9936628   -4.3927387            0   -2.9026171   0.46749504    5869.0448 
   49800    0.9941888   -4.3934924            0   -2.9025821   0.42641064    5868.0493 
   49900    1.0005469   -4.4026362            0   -2.9021911   0.43924853     5866.964 
   50000   0.99549432   -4.3938416            0   -2.9009734   0.48561817    5867.2742 
   50100    1.0020301   -4.4023504            0    -2.899681   0.42418161    5869.1034 
   50200   0.98941743   -4.3843305            0   -2.9005754   0.41866907    5872.9026 
   50300    1.0118867   -4.4157407            0   -2.8982902    0.3460398    5877.8169 
   50400   0.99497947   -4.3874702            0   -2.8953741    0.3850328    5883.8604 
   50500   0.99887005    -4.391045            0   -2.8931145   0.38231454    5887.2164 
   50600   0.99613383   -4.3832651            0   -2.8894379   0.36072356     5888.909 
   50700    1.0108556   -4.3950466            0   -2.8791423   0.39674262    5888.9011 
   50800    1.0139252   -4.3899777            0   -2.8694702   0.37675942    5889.0398 
   50900    1.0029844    -4.369093            0   -2.8649925    0.5253843    5890.6142 
   51000    1.0184677   -4.3937194            0   -2.8663997   0.35981364    5897.5902 
   51100    0.9918572   -4.3655807            0   -2.8781669   0.40279355    5905.3883 
   51200   0.99406629   -4.3881273            0   -2.8974006   0.35225264    5911.1428 
   51300   0.98632511   -4.3929953            0   -2.9138775   0.26636072    5914.5605 
   51400   0.97276294   -4.3782354            0   -2.9194558   0.39930987    5911.4826 
   51500   0.99600966   -4.4036407            0   -2.9099997   0.34102568    5904.1963 
   51600    1.0061849   -4.3940821            0   -2.8851821   0.40029076    5895.5112 
   51700    1.0122445   -4.3807769            0   -2.8627898   0.42845636    5887.3701 
   51800    1.0290997   -4.4018087            0    -2.858545   0.34096852    5879.3605 
   51900    1.0177868   -4.3915302            0   -2.8652317   0.51510584    5872.2109 
   52000    1.0134791   -4.3995688            0   -2.8797302   0.49455275    5871.0423 
   52100    1.0086666   -4.4090915            0   -2.8964698   0.35823116    5874.1587 
   52200   0.99915983    -4.407557            0    -2.909192   0.37998949    5877.2003 
   52300    1.0014803   -4.4146552            0   -2.9128104   0.35302052    5881.4397 
   52400   0.99419623   -4.4020815            0     -2.91116   0.30734794    5885.2008 
   52500   0.99775903   -4.3990931            0   -2.9028287   0.34988242    5885.5975 
   52600    1.0077918    -4.399175            0   -2.8878653   0.40002071      5884.29 
   52700    1.0103117   -4.3856284            0   -2.8705397   0.47986827    5882.3352 
   52800    1.0145559    -4.374604            0   -2.8531507   0.49490007    5883.8188 
   52900    1.0235203   -4.3754298            0   -2.8405332   0.43356318    5889.0564 
   53000    1.0360486   -4.3928245            0   -2.8391401   0.36498176    5897.2484 
   53100    1.0036182   -4.3654052            0   -2.8603542   0.40922222    5908.7015 
   53200   0.99416569   -4.3779799            0   -2.8871041   0.30637257    5922.0287 
   53300   0.97905691   -4.3669128            0   -2.8986946   0.28933933    5930.8237 
   53400   0.97434829   -4.3577481            0   -2.8965911   0.34644858    5932.5165 
   53500   0.99035419   -4.3656258            0   -2.8804659   0.33779449     5929.379 
   53600      1.00763   -4.3699366            0   -2.8588695   0.36581587    5922.2653 
   53700    1.0155523   -4.3701158            0   -2.8471682   0.38447389    5913.4879 
   53800    1.0148026   -4.3696197            0   -2.8477964   0.44628084    5905.2176 
   53900    1.0221006   -4.3911807            0   -2.8584132   0.38727915    5897.1671 
   54000    1.0082673   -4.3840378            0    -2.872015   0.44570436    5890.2471 
   54100    1.0025496   -4.3885436            0   -2.8850951   0.40006667    5885.7088 
   54200   0.99543826   -4.3855975            0   -2.8928134   0.44177949    5881.0332 
   54300    1.0055892   -4.4074356            0   -2.8994289   0.35523816    5877.7553 
   54400   0.99253796   -4.3924784            0   -2.9040436   0.44355639    5873.1638 
   54500   0.99347412   -4.3971795            0   -2.9073409    0.4161325    5869.2146 
   54600    1.0013007   -4.4130634            0   -2.9114878   0.42010072    5864.6535 
   54700   0.99096789   -4.3989364            0   -2.9128562   0.46108977    5860.8005 
   54800    1.0038741   -4.4170758            0   -2.9116412   0.40038336    5857.4974 
   54900   0.99883216   -4.4028437            0     -2.90497   0.52548728    5855.6328 
   55000    1.0031981   -4.4041218            0   -2.8997009   0.50245571    5856.7534 
   55100    1.0092737   -4.4123558            0   -2.8988236   0.39692523    5860.7655 
   55200    1.0007567   -4.4060543            0   -2.9052945   0.43569352    5865.3383 
   55300   0.98915728   -4.3978915            0   -2.9145266   0.43409736    5871.7964 
   55400   0.99716648   -4.4164279            0   -2.9210522   0.38456201    5879.6548 
   55500   0.98868123   -4.4091193            0   -2.9264682   0.31327625    5886.3636 
   55600   0.98960539   -4.4056894            0   -2.9216524   0.32368603    5890.6494 
   55700    0.9943389   -4.3953935            0    -2.904258   0.36575226    5892.0582 
   55800    1.0014635    -4.381866            0   -2.8800462   0.45260043    5892.1348 
   55900    1.0173221   -4.3897577            0   -2.8641561    0.3930853    5895.4578 
   56000    1.0123053   -4.3766119            0   -2.8585336   0.41367887    5901.9812 
   56100   0.99769595   -4.3576391            0   -2.8614693   0.47708048    5909.7923 
   56200    1.0034748   -4.3718002            0   -2.8669643    0.3488775    5919.7164 
   56300   0.99495126    -4.362649            0   -2.8705953   0.37112621    5930.9032 
   56400   0.99431109   -4.3611413            0   -2.8700475   0.28538969    5940.7643 
   56500   0.98988845   -4.3417792            0   -2.8573178   0.36007924    5945.0131 
   56600    1.0116983   -4.3362734            0   -2.8191054    0.4042232    5946.7559 
   56700    1.0132533   -4.3180591            0   -2.7985591   0.41500948    5948.6275 
   56800    1.0134113   -4.3183622            0   -2.7986254   0.44959004    5950.6293 
   56900    1.0069871   -4.3238713            0   -2.8137684     0.397112    5952.8989 
   57000    1.0018784   -4.3367004            0   -2.8342585   0.34463041    5954.1392 
   57100   0.99538523   -4.3437857            0   -2.8510811    0.3861158    5952.6306 
   57200   0.98737595    -4.341074            0   -2.8603803   0.41255318    5947.5913 
   57300   0.99616768   -4.3569898            0   -2.8631118   0.34359234    5939.7494 
   57400    1.0019422   -4.3649318            0   -2.8623942   0.31546623    5928.3997 
   57500      1.01749   -4.3851062            0   -2.8592527   0.35970621    5912.5702 
   57600    1.0072507   -4.3689683            0     -2.85847   0.47456075    5896.4418 
   57700    1.0077467   -4.3809584            0   -2.8697162   0.49074497    5883.9371 
   57800   0.99752931   -4.3938172            0   -2.8978973    0.4117901    5874.5063 
   57900   0.97198196   -4.3764311            0   -2.9188227   0.46021808    5864.6367 
   58000   0.98713236   -4.4072004            0   -2.9268721   0.49093129    5853.0106 
   58100   0.99960483   -4.4303052            0   -2.9312728   0.47137925    5842.0844 
   58200   0.99766068   -4.4308062            0   -2.9346893   0.47426307    5834.4153 
   58300    1.0033534   -4.4438108            0   -2.9391569    0.4448689    5830.6533 
   58400   0.99584039   -4.4381516            0   -2.9447645   0.39037124     5830.674 
   58500     1.009271   -4.4633986            0   -2.9498706   0.32156991    5832.2588 
   58600    1.0015176   -4.4518435            0   -2.9499427   0.34995252    5834.1034 
   58700    1.0057582   -4.4493176            0   -2.9410575    0.3741851    5837.6782 
   58800    1.0061755   -4.4335922            0   -2.9247063   0.43054713    5842.8346 
   58900   0.99174542   -4.3973701            0   -2.9101238    0.5185256    5850.7911 
   59000    1.0046594   -4.4019052            0   -2.8952929   0.44918129    5863.6433 
   59100   0.99123784   -4.3738676            0   -2.8873826   0.45172733     5879.063 
   59200    1.0064167   -4.3913425            0   -2.8820949   0.37052502    5894.9799 
   59300     0.995193   -4.3716039            0   -2.8791876   0.39148095    5909.4478 
   59400     1.005424   -4.3762586            0   -2.8684996   0.33860319    5923.9158 
   59500   0.99546564   -4.3366618            0   -2.8438366   0.42169948    5938.3452 
   59600    1.0134201   -4.3393915            0   -2.8196414   0.35647141    5951.9811 
   59700    1.0144447   -4.3304587            0    -2.809172   0.33968461    5963.6047 
   59800    1.0248884   -4.3461128            0   -2.8091646   0.28240286     5973.153 
   59900   0.98954955   -4.3003844            0   -2.8164311   0.39141419    5978.7764 
   60000    1.0002916    -4.329023            0   -2.8289607   0.26947901    5980.7246 
   60100   0.99614359   -4.3351038            0   -2.8412619   0.30869728    5976.1534 
   60200   0.98349369   -4.3282939            0   -2.8534222   0.35721706    5965.2578 
   60300   0.99251061    -4.359073            0   -2.8706793   0.32873179    5948.6511 
   60400   0.99732921   -4.3890011            0   -2.8933813    0.2513974    5925.3773 
   60500   0.97125651   -4.3656769            0   -2.9091564   0.44038593    5896.2246 
   60600    1.0085793    -4.426396            0   -2.9139053   0.27937895    5866.0858 
   60700    1.0120617   -4.4334975            0   -2.9157845   0.45004577    5835.6515 
   60800    1.0052586   -4.4323743            0   -2.9248634   0.50237586    5811.7298 
   60900   0.99274204   -4.4442689            0   -2.9555281   0.56322286    5796.8497 
   61000   0.99918757   -4.4796907            0    -2.981284    0.4124486    5790.5998 
   61100   0.98970297   -4.4733942            0   -2.9892109   0.38914558    5788.0191 
   61200   0.99134795   -4.4703837            0   -2.9837335   0.50079772    5787.4083 
   61300   0.98196962    -4.446459            0   -2.9738728   0.54246295     5790.729 
   61400   0.99937805   -4.4579134            0   -2.9592211   0.45480453    5797.3587 
   61500   0.99934629   -4.4458576            0   -2.9472129   0.46232434    5805.1193 
   61600   0.99758136   -4.4353601            0   -2.9393621   0.48260794    5813.6929 
   61700   0.99672873   -4.4286366            0   -2.9339173   0.45926419    5824.2857 
   61800    1.0075622   -4.4386064            0    -2.927641    0.3783866    5835.6326 
   61900    1.0073935   -4.4250566            0   -2.9143441   0.45271914    5845.9786 
   62000     1.013013   -4.4085166            0    -2.889377   0.42075491     5856.517 
   62100    1.0062768   -4.3802657            0   -2.8712279   0.55382911    5867.9586 
   62200    1.0187545   -4.3948866            0   -2.8671369   0.43723554    5883.8868 
   62300    1.0083404    -4.385533            0   -2.8734006    0.3886882    5902.8664 
   62400   0.98990342   -4.3705018            0   -2.8860179   0.36902986      5921.24 
   62500   0.99359524   -4.3893168            0   -2.8992966   0.24280458    5934.0244 
   62600   0.97308921   -4.3645472            0   -2.9052783   0.40179597    5939.4043 
   62700   0.97867755    -4.359591            0   -2.8919417   0.38182832    5941.2873 
   62800    1.0047183   -4.3646228            0   -2.8579222   0.33375282    5939.8996 
   62900   0.99725859   -4.3332835            0   -2.8377696   0.43310223    5936.1265 
   63000    1.0187228   -4.3618939            0   -2.8341917   0.39131141    5932.2603 
   63100    1.0106656   -4.3577896            0   -2.8421702   0.42088743    5929.3549 
   63200    1.0096133   -4.3726756            0   -2.8586343   0.32202271    5926.5051 
   63300   0.99729355   -4.3709315            0   -2.8753652   0.34067715    5922.3956 
   63400    1.0016461   -4.3887897            0   -2.8866961   0.29537436    5915.8882 
   63500   0.99079254   -4.3776881            0   -2.8918709   0.38084383    5906.7486 
   63600   0.99183155   -4.3790564            0    -2.891681    0.4168096    5895.7348 
   63700   0.99926945   -4.3884254            0   -2.8898959   0.44507913    5884.6405 
   63800    1.0076485   -4.3976239            0    -2.886529    0.4472356    5877.5571 
   63900     1.003172   -4.3875709            0   -2.8831892   0.52024606    5873.4639 
   64000    1.0140725   -4.4057867            0   -2.8850583   0.45462842    5872.9455 
   64100   0.99761898   -4.3901626            0   -2.8941082   0.46203158    5876.0625 
   64200   0.99260638   -4.3957295            0   -2.9071922   0.41076243    5881.2024 
   64300     0.988098    -4.396775            0   -2.9149985   0.36733159    5886.7896 
   64400    0.9833498   -4.3903853            0   -2.9157294   0.40251202    5890.5233 
   64500   0.99953559   -4.4016573            0   -2.9027288   0.33977667    5892.9128 
   64600   0.99883145   -4.3772328            0   -2.8793602   0.42306202    5894.4463 
   64700    1.0215425   -4.3941326            0   -2.8622019   0.36629085    5895.8763 
   64800    1.0052159   -4.3672704            0   -2.8598234    0.4430102    5899.4432 
   64900    1.0066269   -4.3736764            0   -2.8641136   0.40002328     5904.287 
   65000    1.0011585   -4.3748966            0   -2.8735343   0.33057712    5908.2284 
   65100   0.99337555   -4.3742608            0     -2.88457    0.3907451    5909.3363 
   65200   0.99510573   -4.3833225            0    -2.891037   0.35756805    5909.6506 
   65300   0.99009804   -4.3797629            0   -2.8949871   0.46595727    5909.3732 
   65400   0.99063613   -4.3755632            0   -2.8899805   0.37572327    5910.9139 
   65500    1.0061155   -4.3809658            0   -2.8721699   0.35697869    5911.2399 
   65600    1.0096185   -4.3710119            0   -2.8569628   0.39368832    5908.6376 
   65700    1.0142919   -4.3704178            0   -2.8493603   0.50635708    5906.0197 
   65800    1.0008757   -4.3572128            0   -2.8562745   0.51316745     5907.188 
   65900   0.99752855    -4.367325            0   -2.8714063   0.38623945    5912.0101 
   66000   0.99233666    -4.373916            0   -2.8857832   0.32752879    5915.6775 
   66100   0.98615388   -4.3720885            0   -2.8932275   0.37107701    5915.7536 
   66200   0.99236069   -4.3834167            0   -2.8952478   0.31490861    5912.6009 
   66300   0.99488864   -4.3841639            0    -2.892204     0.392817    5905.3068 
   66400    1.0089762   -4.3943759            0   -2.8812899   0.37195043    5896.3353 
   66500   0.99570377   -4.3555613            0   -2.8623791   0.50662433    5888.2212 
   66600    1.0219601   -4.3794783            0   -2.8469213   0.46552069     5882.118 
   66700    1.0256585   -4.3831411            0   -2.8450379   0.51236381    5880.4368 
   66800    1.0244407   -4.3978956            0   -2.8616188   0.35210676    5885.6539 
   66900   0.99544784   -4.3814615            0   -2.8886631   0.37258512    5892.2339 
   67000   0.98062769    -4.372812            0   -2.9022382   0.41406257    5896.6561 
   67100   0.98799477   -4.3837156            0   -2.9020939   0.39332743    5899.1614 
   67200   0.98449581   -4.3745869            0   -2.8982123   0.45403856    5899.8537 
   67300    0.9951404   -4.3822274            0     -2.88989   0.36869389    5901.5773 
   67400   0.99866805   -4.3772022            0   -2.8795746   0.37822687    5902.3254 
   67500    1.0001719   -4.3696027            0   -2.8697199   0.44792314    5901.0055 
   67600    1.0184131   -4.3885619            0   -2.8613241   0.34932035    5899.7809 
   67700    1.0088391   -4.3643359            0   -2.8514556   0.46868463    5899.9544 
   67800    1.0206003   -4.3702582            0   -2.8397405   0.43038703    5901.7379 
   67900    1.0208793   -4.3674791            0    -2.836543    0.4568811    5905.8062 
   68000    1.0045376    -4.358096            0   -2.8516663   0.42977072    5912.8611 
   68100   0.99255334   -4.3631297            0   -2.8746719   0.45764856    5920.7004 
   68200   0.98442156   -4.3676738            0   -2.8914106   0.32627512    5928.8488 
   68300   0.98390697   -4.3711423            0   -2.8956508   0.25857007    5931.8672 
   68400   0.98713537    -4.369091            0   -2.8887581   0.34228122    5927.6102 
   68500   0.99076947   -4.3579843            0   -2.8722017   0.40745414    5919.6755 
   68600    1.0129948   -4.3706556            0   -2.8515432   0.38625946    5910.1627 
   68700    1.0185705    -4.369981            0   -2.8425072   0.48758838    5900.7381 
   68800    1.0298691   -4.3914869            0   -2.8470695    0.3694677    5895.0705 
   68900    1.0099591    -4.373858            0   -2.8592981   0.47858129    5892.7128 
   69000    1.0127962   -4.3883531            0   -2.8695386   0.40468191    5895.2209 
   69100   0.99284394   -4.3672317            0   -2.8783381   0.41453093    5899.3094 
   69200   0.98729123   -4.3658001            0   -2.8852335   0.46003485    5901.5988 
   69300   0.98294622   -4.3630873            0   -2.8890366   0.44096506    5903.0246 
   69400     1.008778   -4.4024817            0    -2.889693   0.32563978    5903.3699 
   69500   0.99892357   -4.3842101            0   -2.8861993   0.39958181    5902.7354 
   69600    1.0024959   -4.3818675            0   -2.8784995   0.37920865    5901.8548 
   69700    1.0175613    -4.390302            0   -2.8643416   0.35677199    5900.7013 
   69800    1.0158765   -4.3736603            0   -2.8502264   0.45727145     5900.381 
   69900    1.0129245   -4.3623644            0   -2.8433575   0.43200711    5903.8153 
   70000    1.0192583   -4.3764053            0   -2.8479001   0.35859825    5908.9031 
   70100    1.0036317   -4.3735868            0   -2.8685156   0.40289791     5912.523 
   70200   0.97987931   -4.3633107            0   -2.8938592   0.44850068    5915.7672 
   70300    0.9828508   -4.3781967            0   -2.9042891   0.33367723    5917.2936 
   70400   0.97863351   -4.3693353            0    -2.901752   0.39143638    5914.9429 
   70500    1.0001442   -4.3902557            0   -2.8904145   0.33238571    5909.3951 
   70600    1.0048152   -4.3843443            0   -2.8774984   0.33437657    5900.9603 
   70700    1.0111132   -4.3834642            0   -2.8671736   0.38263178    5890.8804 
   70800    1.0074695   -4.3741656            0   -2.8633392   0.46305565    5881.5041 
   70900    1.0197591    -4.398113            0   -2.8688567   0.41079986    5875.6594 
   71000    1.0106715   -4.3933407            0   -2.8777125   0.50908399    5873.4926 
   71100    1.0116797   -4.4055145            0   -2.8883743   0.45465591    5877.1149 
   71200   0.99001602   -4.3803968            0   -2.8957441   0.42095101    5886.3085 
   71300   0.98460059   -4.3769754            0   -2.9004438   0.37997607    5894.4559 
   71400   0.98873154   -4.3844971            0   -2.9017705   0.34487942    5898.1432 
   71500   0.99026129   -4.3800335            0   -2.8950129   0.41332902    5898.2587 
   71600    1.0134984   -4.3978264            0   -2.8779589   0.31459499    5897.6074 
   71700      1.01519   -4.3774647            0   -2.8550604   0.47279484    5896.5918 
   71800    1.0359742   -4.3938429            0   -2.8402701   0.39336108    5898.1578 
   71900    1.0225212   -4.3751313            0   -2.8417331   0.43886693    5903.2148 
   72000     1.015192   -4.3876903            0    -2.865283   0.35732366    5910.0109 
   72100   0.97886687   -4.3683783            0   -2.9004451   0.32857429    5915.7548 
   72200   0.98813819   -4.3879533            0   -2.9061166   0.34175298    5917.3416 
   72300   0.99344207   -4.3875476            0    -2.897757    0.3515115    5917.2061 
   72400   0.99741009    -4.379729            0   -2.8839879   0.35862203    5916.0561 
   72500   0.99950592   -4.3672712            0   -2.8683872   0.41001233     5914.513 
   72600    1.0093301   -4.3711255            0   -2.8575088   0.37288921    5911.5501 
   72700    1.0188553   -4.3795178            0    -2.851617   0.44127947    5908.9544 
   72800    1.0221492   -4.3904407            0   -2.8576002   0.35288888    5908.7352 
   72900   0.99878759   -4.3735926            0   -2.8757857   0.36389101    5907.9773 
   73000   0.99144952   -4.3850126            0   -2.8982101   0.36981287    5905.3859 
   73100   0.99211102   -4.3999513            0   -2.9121568   0.36526607     5900.146 
   73200   0.99655315   -4.4097937            0   -2.9153377   0.28583876    5891.0465 
   73300   0.99089071   -4.3982145            0     -2.91225   0.46844863    5876.2335 
   73400   0.98845229   -4.3897687            0   -2.9074609   0.51651766     5861.483 
   73500    1.0043983   -4.4087167            0   -2.9024959   0.45208064     5849.906 
   73600    1.0136838   -4.4243192            0   -2.9041736   0.45254152    5840.8458 
   73700    1.0168636   -4.4366042            0   -2.9116902   0.43388014    5835.4369 
   73800    1.0102265   -4.4345388            0   -2.9195779   0.45601025    5834.3756 
   73900   0.99552843   -4.4213764            0   -2.9284571   0.46510458    5838.9746 
   74000   0.99308038   -4.4229514            0   -2.9337032   0.43323751    5845.9164 
   74100   0.99185395    -4.422851            0    -2.935442   0.36489893    5853.9494 
   74200    0.9946552   -4.4208225            0   -2.9292126   0.38710217    5861.7896 
   74300    1.0095559    -4.423335            0   -2.9093797   0.29877894    5869.1943 
   74400    1.0067214   -4.3856671            0   -2.8759625   0.48574565    5875.0442 
   74500    1.0223631   -4.3952661            0   -2.8621048   0.36632863    5884.2909 
   74600    1.0179619   -4.3905043            0   -2.8639433    0.3542864    5895.7138 
   74700    1.0067028   -4.3807988            0   -2.8711221   0.31463685    5907.7186 
   74800    1.0073175   -4.3876532            0   -2.8770546   0.29600642    5917.8861 
   74900    1.0077289   -4.3927334            0   -2.8815179   0.24202442    5923.7919 
   75000   0.98810794   -4.3654769            0   -2.8836855   0.33275982    5923.8868 
   75100   0.99502086   -4.3696471            0    -2.877489   0.40392918    5920.3194 
   75200    1.0088495   -4.3662322            0   -2.8533363   0.38134287    5916.3256 
   75300    1.0193865    -4.358377            0   -2.8296795   0.48089043     5910.696 
   75400    1.0278197   -4.3665218            0   -2.8251778   0.44175285    5908.6161 
   75500    1.0183004   -4.3641411            0   -2.8370724   0.38436103    5911.0037 
   75600    1.0001035   -4.3587391            0   -2.8589589   0.45123138    5915.5146 
   75700   0.99591061   -4.3684962            0   -2.8750038   0.39284937    5920.7905 
   75800   0.99445246   -4.3709855            0   -2.8796797   0.33522425     5925.245 
   75900   0.99079059   -4.3625086            0   -2.8766942   0.37623444    5926.6628 
   76000    1.0068617   -4.3793655            0   -2.8694505   0.31491002    5925.9382 
   76100   0.99408768   -4.3518478            0   -2.8610891   0.44362864    5924.3299 
   76200    1.0014608   -4.3545867            0   -2.8527711   0.39901297    5922.6405 
   76300     1.013039   -4.3651979            0   -2.8460193   0.38917778    5919.5946 
   76400    1.0118599   -4.3597543            0   -2.8423439   0.47200039    5917.0169 
   76500    1.0112578   -4.3665389            0   -2.8500313   0.38763429    5916.9277 
   76600    1.0013269   -4.3779894            0   -2.8763745   0.38176984    5917.2997 
   76700   0.98219929   -4.3701938            0   -2.8972632   0.33998956    5917.6425 
   76800   0.99374889   -4.3963822            0   -2.9061315   0.25454952    5913.0516 
   76900   0.98671947   -4.3829069            0   -2.9031977   0.31163818    5901.2469 
   77000    1.0110709   -4.4086931            0   -2.8924659   0.30605837    5883.4701 
   77100    1.0061159   -4.3878377            0   -2.8790411   0.44740397    5862.3485 
   77200    1.0168051   -4.3949222            0   -2.8700958   0.51696975    5842.1045 
   77300    1.0226405     -4.41609            0   -2.8825127   0.52713072    5825.7846 
   77400    1.0131531   -4.4389639            0   -2.9196142   0.44262869    5816.4767 
   77500   0.99109689   -4.4264464            0   -2.9401728     0.510456    5811.8964 
   77600   0.99792748   -4.4476954            0   -2.9511784    0.4416298     5810.216 
   77700    1.0001428   -4.4579059            0   -2.9580668   0.37627549    5810.5359 
   77800    0.9846689   -4.4381549            0   -2.9615208   0.45639726    5813.0645 
   77900   0.99197446   -4.4480648            0   -2.9604751   0.42325547    5816.8727 
   78000    1.0093007   -4.4660315            0    -2.952459   0.31915324    5822.3099 
   78100     1.006091   -4.4449092            0   -2.9361499   0.40483649     5827.237 
   78200    1.0103715   -4.4308079            0   -2.9156294   0.46816429    5833.7138 
   78300    1.0009209   -4.4054582            0   -2.9044522   0.53806321    5842.8253 
   78400    1.0081851   -4.4148894            0   -2.9029898   0.43663295    5856.7862 
   78500   0.99529797   -4.3985786            0   -2.9060049   0.48073117    5873.2878 
   78600   0.97716965   -4.3774008            0   -2.9120128   0.41699872    5892.0776 
   78700   0.99068836   -4.3965645            0   -2.9109034    0.2916548    5909.3363 
   78800   0.97812984   -4.3612646            0   -2.8944366   0.40055043    5920.9556 
   78900    0.9943409    -4.356476            0   -2.8653375   0.37160716    5929.5823 
   79000    1.0072325   -4.3551465            0   -2.8446755   0.39802917    5935.7707 
   79100    1.0050219   -4.3428827            0   -2.8357268   0.36697561    5940.5768 
   79200     1.009388   -4.3466832            0   -2.8329798   0.34609694     5944.392 
   79300    1.0029603   -4.3388249            0   -2.8347606   0.34380617    5947.0676 
   79400    1.0019142    -4.341921            0   -2.8394254   0.37976247    5947.4359 
   79500   0.99594789    -4.340482            0   -2.8469337   0.37557609    5944.4283 
   79600    1.0061972    -4.368529            0   -2.8596106   0.32907504    5937.5226 
   79700   0.99293543   -4.3675561            0   -2.8785253   0.32541214    5926.5625 
   79800   0.98484203   -4.3721874            0   -2.8952937   0.36519453    5912.2627 
   79900   0.98983905   -4.3864301            0   -2.9020427   0.38639386     5894.622 
   80000    1.0002899    -4.403119            0   -2.9030593   0.37878531    5875.0333 
   80100     1.003521    -4.404001            0   -2.8990958   0.41683874    5856.2471 
   80200    1.0216476   -4.4260102            0    -2.893922   0.45079439    5839.9182 
   80300    1.0099985   -4.4145692            0   -2.8999503   0.54075211    5828.9396 
   80400   0.99948796   -4.4196166            0   -2.9207594   0.54016373    5824.0737 
   80500    1.0000799    -4.445856            0   -2.9461113   0.39331224    5823.5938 
   80600    1.0000169   -4.4624838            0   -2.9628334   0.34422103    5823.5489 
   80700   0.98577526   -4.4465484            0   -2.9682552   0.36656099    5822.3159 
   80800   0.97638325   -4.4300395            0   -2.9658308   0.45793369    5818.9459 
   80900   0.98838522    -4.434347            0   -2.9521398   0.46477284    5816.3454 
   81000    1.0139106   -4.4543955            0   -2.9339099   0.42751913    5815.1646 
   81100    1.0036142   -4.4273174            0   -2.9222725   0.48110454    5817.3627 
   81200    1.0096461   -4.4317957            0   -2.9177051   0.44494469    5821.9819 
   81300    1.0156722   -4.4397107            0   -2.9165833   0.46647836    5831.1989 
   81400    1.0145082    -4.443644            0   -2.9222621   0.27845798    5844.3846 
   81500   0.98455913   -4.4151527            0   -2.9386833   0.33993482    5856.8129 
   81600   0.97327013     -4.41239            0   -2.9528498   0.36598673    5866.5737 
   81700   0.99160874   -4.4375236            0   -2.9504823   0.21766815    5873.4318 
   81800   0.99440056   -4.4212762            0   -2.9300482   0.33308524    5874.5452 
   81900   0.99577739   -4.3990366            0   -2.9057439   0.42837325    5872.8285 
   82000    1.0157328   -4.4127095            0   -2.8894912   0.46915285    5873.4213 
   82100    1.0004834   -4.3852437            0   -2.8848939   0.44201761    5878.0666 
   82200   0.99884011   -4.3842161            0   -2.8863305   0.42782063    5884.2273 
   82300    1.0058614   -4.3983046            0   -2.8898897   0.35379751    5891.6098 
   82400   0.99097463   -4.3813939            0   -2.8953036   0.41221004    5898.8969 
   82500   0.99161391   -4.3883778            0   -2.9013288    0.4078438    5906.2601 
   82600   0.98812823   -4.3841374            0   -2.9023156   0.34620998    5912.6485 
   82700   0.98479761   -4.3722935            0   -2.8954664   0.36181092     5916.363 
   82800    1.0066531   -4.3852985            0   -2.8756964   0.31212254    5915.6192 
   82900    1.0087601   -4.3682174            0   -2.8554555   0.41864081     5911.227 
   83000    1.0008643   -4.3474401            0   -2.8465189   0.52567268    5906.1247 
   83100    1.0136269   -4.3691265            0   -2.8490662   0.41641772    5903.4415 
   83200    1.0075779   -4.3755206            0   -2.8645316   0.42453741    5902.6081 
   83300   0.99411475     -4.37857            0   -2.8877706   0.42654809    5902.7419 
   83400   0.99317697   -4.3904243            0   -2.9010313   0.36351103    5903.9614 
   83500   0.99955029   -4.3998431            0   -2.9008926   0.32333404    5904.8979 
   83600   0.98968291   -4.3800479            0   -2.8958946   0.37241651    5903.3397 
   83700    1.0000509   -4.3884752            0   -2.8887739   0.35017932    5898.9186 
   83800    1.0146517   -4.4047555            0   -2.8831584    0.3569962    5890.8852 
   83900    1.0107238   -4.3963335            0   -2.8806268   0.39270252    5881.6846 
   84000     1.005114   -4.3902136            0   -2.8829196   0.49403288     5874.079 
   84100    1.0098233   -4.4069432            0   -2.8925869   0.40350093     5869.301 
   84200   0.99514713   -4.4029498            0   -2.9106023    0.4062449    5866.4226 
   84300   0.99522949   -4.4303545            0   -2.9378835   0.34104778    5863.7569 
   84400   0.98289929   -4.4340546            0   -2.9600742   0.33121603    5860.1876 
   84500   0.98490962   -4.4414005            0   -2.9644054   0.33996086    5853.7658 
   84600   0.97018637   -4.4110473            0   -2.9561315   0.46103554    5844.5698 
   84700   0.97942212    -4.412606            0   -2.9438401   0.51091422    5833.4286 
   84800    1.0028107   -4.4345901            0   -2.9307501   0.45314588    5823.4054 
   84900    1.0017042    -4.423213            0   -2.9210324   0.49400816    5816.8633 
   85000    1.0105119   -4.4334316            0   -2.9180428   0.47684978    5814.5535 
   85100   0.99238956   -4.4107335            0   -2.9225213   0.55286928    5817.6796 
   85200    1.0032637   -4.4428986            0   -2.9383793   0.42926783     5826.926 
   85300   0.98539561   -4.4376903            0   -2.9599664   0.35414715    5838.4285 
   85400   0.97451321   -4.4324422            0   -2.9710378   0.32550065    5848.9275 
   85500   0.97482167   -4.4271289            0   -2.9652619   0.32892031    5855.1669 
   85600   0.98663385   -4.4124369            0   -2.9328561   0.43230121    5857.7373 
   85700   0.99805843   -4.4021494            0    -2.905436   0.44648005    5860.4316 
   85800   0.99291218   -4.3853575            0   -2.8963615   0.46249573    5864.9103 
   85900    1.0033683   -4.3975717            0   -2.8928955   0.46439104    5869.8394 
   86000   0.99892064   -4.3914162            0   -2.8934098   0.36736096    5877.1565 
   86100    1.0048899   -4.4019233            0   -2.8949653   0.38679176    5884.7027 
   86200    1.0053828   -4.4056189            0   -2.8979217   0.32790065    5893.4698 
   86300   0.99974475   -4.3971956            0   -2.8979534   0.32354489    5900.3798 
   86400    1.0009457   -4.3967485            0   -2.8957053   0.29137413    5903.4573 
   86500    0.9879021   -4.3700958            0   -2.8886131   0.40045364    5901.9009 
   86600    1.0105289   -4.3876354            0   -2.8722209   0.43464405    5897.6501 
   86700    1.0189979   -4.3848203            0   -2.8567056   0.42069334    5895.1556 
   86800    1.0255518   -4.3877134            0   -2.8497703   0.38166765    5895.8612 
   86900    1.0141221   -4.3765217            0   -2.8557189   0.41537173    5898.5527 
   87000      1.00814   -4.3910475            0   -2.8792156   0.33863916    5903.1443 
   87100   0.97164823   -4.3629612            0   -2.9058532   0.36051614    5906.8709 
   87200   0.98450339   -4.3882868            0   -2.9119009   0.30770394     5906.792 
   87300   0.98996592   -4.3903336            0    -2.905756   0.33978135    5900.7567 
   87400    1.0004992   -4.3937277            0    -2.893354   0.38571492    5891.6671 
   87500    1.0083579   -4.3982325            0   -2.8860738    0.3986383    5881.7162 
   87600     1.016294   -4.4084379            0   -2.8843781   0.38486718    5871.9838 
   87700    1.0179039   -4.4175284            0   -2.8910542   0.43000284    5863.6362 
   87800   0.99677395   -4.3984443            0   -2.9036571   0.49623334    5859.0321 
   87900    1.0098189    -4.432942            0   -2.9185924    0.3325225    5859.6317 
   88000   0.98164055   -4.4100921            0   -2.9379994   0.44963339    5861.3464 
   88100   0.95913512   -4.4045518            0   -2.9662088   0.47626461    5863.8142 
   88200    0.9503327   -4.4182052            0   -2.9930626   0.39591922    5865.1158 
   88300   0.95985892   -4.4351174            0    -2.995689   0.34032683    5860.6657 
   88400    0.9843617   -4.4433777            0   -2.9672043   0.30890396    5848.8703 
   88500    0.9953013    -4.429988            0   -2.9374093   0.38829249    5832.1357 
   88600    1.0079489   -4.4401438            0   -2.9285984   0.43166033    5814.6533 
   88700    1.0066571   -4.4363141            0   -2.9267059   0.55910367    5800.3444 
   88800    1.0218876   -4.4658257            0   -2.9333775   0.43571554    5793.8298 
   88900    1.0055625   -4.4572592            0   -2.9492925   0.48374544    5792.5436 
   89000   0.99577154   -4.4600766            0   -2.9667927   0.42887142    5796.1292 
   89100   0.98350724   -4.4518684            0   -2.9769763   0.45491039    5803.7459 
   89200   0.97722212   -4.4420527            0    -2.976586   0.42251991    5813.7601 
   89300   0.98750961   -4.4436983            0   -2.9628042   0.44673944    5823.6671 
   89400     1.001282   -4.4415596            0   -2.9400121   0.43321109    5834.4971 
   89500   0.99824477   -4.4196242            0   -2.9226314   0.44120186    5847.1343 
   89600   0.99913738   -4.4122482            0   -2.9139168   0.38801691    5862.8085 
   89700   0.99812419   -4.4040009            0   -2.9071889   0.38215476    5880.5616 
   89800   0.98800126   -4.3804743            0   -2.8988429   0.39735969    5898.7714 
   89900    0.9842718   -4.3645957            0   -2.8885571   0.39152034    5915.9335 
   90000    1.0011463   -4.3760218            0   -2.8746778   0.30214026    5931.3792 
   90100    0.9870291   -4.3438069            0   -2.8636334   0.39161542    5941.2571 
   90200   0.99708172   -4.3477159            0   -2.8524672   0.38299374    5948.1573 
   90300   0.99921926   -4.3435305            0   -2.8450764   0.39328792    5954.7068 
   90400    0.9973339   -4.3362673            0   -2.8406405   0.42068318    5959.0339 
   90500    1.0044928   -4.3444659            0   -2.8381034   0.28427076    5961.7852 
   90600    1.0016014   -4.3384021            0   -2.8363757   0.33255117    5959.3898 
   90700     1.007239    -4.347069            0   -2.8365881   0.34482302    5952.5017 
   90800   0.99403536   -4.3305956            0   -2.8399153    0.4482286    5942.7673 
   90900    1.0116219   -4.3689883            0   -2.8519348   0.32204697    5932.7463 
   91000     0.989939   -4.3695544            0   -2.8850171   0.34076292    5921.2116 
   91100   0.98820166   -4.3918719            0     -2.90994   0.34336884    5906.5566 
   91200   0.98954959   -4.3986259            0   -2.9146726   0.36234046    5888.2033 
   91300   0.98142241   -4.3813395            0   -2.9095739   0.54579181    5868.5511 
   91400    1.0072572   -4.4146361            0   -2.9041279   0.40361547    5851.8178 
   91500    1.0009202   -4.4037365            0   -2.9027315   0.54859095    5837.4609 
   91600    1.0137535   -4.4308003            0   -2.9105502   0.49367003    5829.4178 
   91700   0.99577441   -4.4260968            0   -2.9328086   0.40061542    5827.1599 
   91800   0.98426528    -4.436101            0   -2.9600722   0.41824778     5826.282 
   91900   0.97052873    -4.426587            0   -2.9711578   0.50773548     5825.068 
   92000   0.98803593   -4.4488917            0   -2.9672083   0.35785479     5825.351 
   92100   0.98382286   -4.4316125            0   -2.9562471   0.47881604    5825.8806 
   92200   0.99421277   -4.4323461            0   -2.9413998   0.43178274    5828.7972 
   92300   0.99704888   -4.4289744            0   -2.9337749   0.48575205    5832.5707 
   92400    1.0101248   -4.4444414            0   -2.9296331   0.46531493    5839.0168 
   92500   0.99957364   -4.4283381            0   -2.9293524   0.44688867    5849.8658 
   92600    1.0016897   -4.4285082            0   -2.9263493   0.37646548    5863.0002 
   92700   0.99398095   -4.4078225            0   -2.9172238   0.39247876    5877.0718 
   92800    1.0006874   -4.3933972            0   -2.8927414   0.38367192    5890.4222 
   92900    1.0027909   -4.3644511            0   -2.8606408   0.45763032    5900.9984 
   93000    1.0150606   -4.3708805            0   -2.8486702   0.37152955    5912.4286 
   93100    1.0024454   -4.3534155            0   -2.8501233   0.41571859    5923.5902 
   93200   0.99634594   -4.3494065            0   -2.8552612     0.421963    5933.5389 
   93300   0.99671669   -4.3579497            0   -2.8632484   0.35891826    5941.7475 
   93400   0.98948009    -4.348988            0   -2.8651389   0.33983123    5947.4465 
   93500   0.98676504   -4.3402604            0   -2.8604829   0.39611934     5948.283 
   93600    1.0062374   -4.3571664            0   -2.8481876    0.3188173    5945.0572 
   93700   0.99282623   -4.3147825            0   -2.8259155   0.44807159    5938.7164 
   93800    1.0290763   -4.3521371            0   -2.8089086   0.43802651     5930.624 
   93900    1.0139172   -4.3297617            0   -2.8092661   0.48157636    5926.2912 
   94000    1.0230213   -4.3634357            0   -2.8292874   0.39352808    5925.3986 
   94100    1.0079743   -4.3712501            0   -2.8596667   0.33110801     5926.256 
   94200    1.0021866   -4.3751832            0   -2.8722792   0.33167329     5925.389 
   94300    0.9958352    -4.367717            0   -2.8743377   0.34663665    5921.4014 
   94400    1.0052118   -4.3782192            0   -2.8707785   0.38461725    5914.5623 
   94500    1.0082277   -4.3791707            0   -2.8672072   0.33445298    5907.1983 
   94600     1.002609   -4.3682204            0    -2.864683    0.4512485    5898.7872 
   94700    1.0172469    -4.394721            0   -2.8692321   0.38831626    5892.0591 
   94800    1.0116892   -4.4025087            0   -2.8853543   0.32736726    5887.0878 
   94900   0.98711581   -4.3869386            0   -2.9066351   0.41480523    5883.3106 
   95000   0.98428309   -4.3964689            0   -2.9204133   0.43785677    5878.8273 
   95100   0.98778238   -4.4045587            0   -2.9232556   0.38213028    5874.7772 
   95200   0.98461389   -4.3939445            0   -2.9173929   0.39104061    5869.1197 
   95300    1.0054768   -4.4067889            0   -2.8989509   0.40812071    5862.9447 
   95400    1.0209651   -4.4010422            0   -2.8699774   0.46056963    5859.4236 
   95500    1.0376522   -4.4105474            0   -2.8544581   0.47453639    5861.0112 
   95600    1.0134829   -4.3778676            0   -2.8580233    0.4835333    5870.6502 
   95700    1.0069775   -4.3770729            0   -2.8669843   0.44043554     5885.426 
   95800    1.0033572   -4.3814836            0   -2.8768241   0.35706637    5901.6614 
   95900   0.99207495    -4.369324            0   -2.8815836   0.35345979    5915.6731 
   96000   0.99586568   -4.3752848            0   -2.8818597   0.32427399    5926.0754 
   96100    0.9833407   -4.3480913            0    -2.873449   0.34753569    5932.4817 
   96200    1.0016288   -4.3585805            0   -2.8565129   0.37161399    5933.7946 
   96300    1.0156302   -4.3600727            0   -2.8370083   0.36769321    5934.1378 
   96400    1.0204157   -4.3565416            0   -2.8263007   0.37284156    5934.3635 
   96500    1.0159646   -4.3514708            0   -2.8279049   0.36662206    5933.4256 
   96600    1.0231026   -4.3724535            0   -2.8381832   0.30646811    5931.3754 
   96700   0.99598088   -4.3565945            0   -2.8629967   0.42198998    5927.4551 
   96800   0.98164277   -4.3631379            0   -2.8910419   0.31667815    5923.5329 
   96900   0.98399805   -4.3750384            0   -2.8994104   0.36534024    5914.9724 
   97000   0.98879552   -4.3775533            0   -2.8947308   0.38222332    5903.1777 
   97100   0.99721741   -4.3809151            0   -2.8854629   0.40761973     5890.729 
   97200    1.0072241   -4.3852462            0   -2.8747878   0.48240898    5879.5739 
   97300    1.0233221   -4.4057819            0   -2.8711826   0.46164253    5874.0004 
   97400     1.008942   -4.3931086            0   -2.8800739   0.47681988    5873.3084 
   97500   0.99873273   -4.3987483            0   -2.9010237   0.36193144    5875.8973 
   97600   0.98941967   -4.4034097            0   -2.9196512   0.39369634    5877.0035 
   97700   0.99653518   -4.4246988            0   -2.9302697   0.26963031    5875.8502 
   97800   0.98255364   -4.4038345            0   -2.9303725   0.34944895    5871.2883 
   97900   0.99422991   -4.4124252            0   -2.9214532   0.45817986    5864.0867 
   98000    1.0084771   -4.4237528            0   -2.9114153    0.3559212    5859.5292 
   98100   0.99674678   -4.4016207            0   -2.9068743   0.45088747    5854.2836 
   98200    1.0138437   -4.4274381            0   -2.9070528   0.36726584    5849.6876 
   98300    1.0127215   -4.4276888            0   -2.9089863   0.38318909    5845.8887 
   98400    1.0131839   -4.4376851            0   -2.9182892   0.35050447    5842.2831 
   98500    1.0047155   -4.4337748            0   -2.9270782   0.44462977    5839.4892 
   98600   0.99645613   -4.4304326            0    -2.936122   0.42371088    5838.9748 
   98700   0.98340889   -4.4188162            0   -2.9440716   0.41824919    5839.3477 
   98800   0.98321274   -4.4210261            0   -2.9465757   0.45304051    5839.8552 
   98900   0.99557229     -4.43611            0   -2.9431249   0.32435877    5839.5726 
   99000    1.0016109   -4.4229231            0   -2.9208824   0.46539486    5837.7013 
   99100    1.0151767   -4.4125436            0   -2.8901593   0.50879852    5838.6395 
   99200    1.0209873   -4.4114894            0   -2.8803913   0.44411153    5844.6163 
   99300   0.99372206   -4.3779465            0   -2.8877361   0.55017331    5853.3691 
   99400    1.0067871   -4.4138011            0    -2.903998   0.39407995    5865.6582 
   99500    1.0072947   -4.4295383            0    -2.918974   0.31737568    5879.7136 
   99600   0.99427113    -4.418118            0   -2.9270841   0.32126762    5893.5831 
   99700   0.99530224   -4.4168729            0   -2.9242928   0.22973519    5904.7005 
   99800   0.98276061    -4.378574            0   -2.9048016   0.33797814    5910.3936 
   99900   0.99529954   -4.3667928            0   -2.8742167   0.43238503     5911.021 
  100000    1.0246768   -4.3987414            0   -2.8621105   0.32528902    5913.0352 
Loop time of 236.663 on 1 procs for 100000 steps with 4000 atoms

Performance: 182537.755 tau/day, 422.541 timesteps/s
97.7% CPU use with 1 MPI tasks x no OpenMP threads

MPI task timing breakdown:
Section |  min time  |  avg time  |  max time  |%varavg| %total
---------------------------------------------------------------
Pair    | 186.06     | 186.06     | 186.06     |   0.0 | 78.62
Neigh   | 28.684     | 28.684     | 28.684     |   0.0 | 12.12
Comm    | 3.4714     | 3.4714     | 3.4714     |   0.0 |  1.47
Output  | 3.4527     | 3.4527     | 3.4527     |   0.0 |  1.46
Modify  | 14.156     | 14.156     | 14.156     |   0.0 |  5.98
Other   |            | 0.8379     |            |       |  0.35

Nlocal:    4000 ave 4000 max 4000 min
Histogram: 1 0 0 0 0 0 0 0 0 0
Nghost:    4966 ave 4966 max 4966 min
Histogram: 1 0 0 0 0 0 0 0 0 0
Neighs:    121728 ave 121728 max 121728 min
Histogram: 1 0 0 0 0 0 0 0 0 0

Total # of neighbors = 121728
Ave neighs/atom = 30.432
Neighbor list builds = 5000
Dangerous builds not checked
Total wall time: 0:03:56
