LAMMPS (7 Aug 2019)
# 3d Lennard-Jones melt

units		lj
atom_style	atomic

lattice		fcc 0.8
Lattice spacing in x,y,z = 1.70998 1.70998 1.70998
region		box block 0 10 0 10 0 10
create_box	1 box
Created orthogonal box = (0 0 0) to (17.0998 17.0998 17.0998)
  1 by 1 by 1 MPI processor grid
create_atoms	1 box
Created 4000 atoms
  create_atoms CPU = 0.000662804 secs
mass		1 1.0

velocity	all create 3.0 87287

pair_style	lj/cut 2.5
pair_coeff	1 1 1.0 1.0 2.5

thermo_style custom step temp pe etotal press vol

neighbor	0.3 bin
neigh_modify	every 20 delay 0 check no

fix		1 all nvt temp 0.1 0.1 1.0

dump		id all atom 100 dump.lammpstrj

thermo		100
run		10000
Neighbor list info ...
  update every 20 steps, delay 0 steps, check no
  max neighbors/atom: 2000, page size: 100000
  master list distance cutoff = 2.8
  ghost atom cutoff = 2.8
  binsize = 1.4, bins = 13 13 13
  1 neighbor lists, perpetual/occasional/extra = 1 0 0
  (1) pair lj/cut, perpetual
      attributes: half, newton on
      pair build: half/bin/atomonly/newton
      stencil: half/bin/3d/newton
      bin: standard
Per MPI rank memory allocation (min/avg/max) = 4.378 | 4.378 | 4.378 Mbytes
Step Temp PotEng TotEng Press Volume 
       0            3   -6.3647465   -1.8658715   -3.8095666         5000 
     100    1.1603546   -4.9245756   -3.1844788    2.6740943         5000 
     200   0.78133328   -5.2736016   -4.1018947   0.78116353         5000 
     300   0.55634385   -5.5175719   -4.6832648  -0.55911115         5000 
     400   0.40795656   -5.6748275   -5.0630456   -1.4374928         5000 
     500   0.31612969   -5.7959866   -5.3219106   -2.0948664         5000 
     600   0.25058984   -5.8808311   -5.5050404   -2.4991156         5000 
     700   0.20880683   -5.9527798   -5.6396479   -2.8298069         5000 
     800   0.18049861   -6.0122786   -5.7415984   -3.0410631         5000 
     900   0.15854814   -6.0607756   -5.8230128    -3.111982         5000 
    1000    0.1517613   -6.1194789   -5.8918939   -3.0490018         5000 
    1100    0.1455688   -6.1723364   -5.9540378   -2.8508939         5000 
    1200   0.14365042    -6.230204   -6.0147823   -2.6569429         5000 
    1300   0.13994712   -6.2836753   -6.0738071   -2.4190408         5000 
    1400   0.13572735   -6.3349605   -6.1314204   -2.2016403         5000 
    1500   0.13547633   -6.3882204   -6.1850567   -2.0149396         5000 
    1600   0.13177796   -6.4340052   -6.2363877   -1.8420542         5000 
    1700   0.12762433    -6.475624   -6.2842354   -1.7039212         5000 
    1800   0.12093559   -6.5098876   -6.3285296   -1.5840312         5000 
    1900   0.11457774   -6.5398412   -6.3680175   -1.5189026         5000 
    2000   0.11129413   -6.5688146   -6.4019152   -1.4600269         5000 
    2100   0.10544278   -6.5893053   -6.4311807   -1.4151884         5000 
    2200     0.103474    -6.611331   -6.4561588   -1.4003772         5000 
    2300  0.097784233   -6.6239829   -6.4773433   -1.3217761         5000 
    2400  0.098204961   -6.6418548   -6.4945842   -1.2629434         5000 
    2500  0.096027061   -6.6528927   -6.5088881   -1.2653424         5000 
    2600  0.096591157   -6.6640434   -6.5191929   -1.2570916         5000 
    2700  0.096462709   -6.6719585   -6.5273006   -1.2469218         5000 
    2800   0.09871067   -6.6797943   -6.5317653   -1.2060526         5000 
    2900   0.10051039    -6.685558   -6.5348301   -1.1820359         5000 
    3000   0.10089907   -6.6894919   -6.5381811   -1.1404013         5000 
    3100   0.10224784   -6.6944892   -6.5411558   -1.1191088         5000 
    3200   0.10296553   -6.7006183   -6.5462086   -1.0803144         5000 
    3300   0.10094314   -6.7048411   -6.5534642   -1.0125792         5000 
    3400  0.099401519   -6.7096594   -6.5605944   -1.0350512         5000 
    3500  0.099329101   -6.7176817   -6.5687253   -1.0391794         5000 
    3600  0.097111297   -6.7214953   -6.5758648   -1.0325511         5000 
    3700  0.097392235    -6.727514   -6.5814622   -1.0282457         5000 
    3800  0.098175767   -6.7332099    -6.585983   -1.0244004         5000 
    3900  0.099986852   -6.7381563   -6.5882136   -1.1064118         5000 
    4000  0.097304208   -6.7357779   -6.5898581   -1.0852039         5000 
    4100   0.10072016   -6.7415623   -6.5905198   -1.0186775         5000 
    4200  0.099687005   -6.7398707   -6.5903776  -0.98602999         5000 
    4300   0.10033535   -6.7408663   -6.5904009   -1.0054009         5000 
    4400   0.10156192   -6.7438798    -6.591575   -1.0424798         5000 
    4500  0.099394414   -6.7432077   -6.5941533  -0.99100942         5000 
    4600   0.10184014   -6.7505281   -6.5978061  -0.99801243         5000 
    4700   0.10035477   -6.7525574   -6.6020629   -1.0194902         5000 
    4800  0.099846806   -6.7561327   -6.6063999  -0.97308829         5000 
    4900  0.098952238    -6.758881   -6.6104897  -0.99091557         5000 
    5000  0.097642717   -6.7603922   -6.6139648  -0.94553617         5000 
    5100   0.09829106   -6.7637196   -6.6163198  -0.92963782         5000 
    5200  0.098880674   -6.7652693   -6.6169853  -0.98852319         5000 
    5300  0.099456814   -6.7659381   -6.6167902  -0.97414661         5000 
    5400    0.1013954   -6.7683137   -6.6162586  -0.95077373         5000 
    5500    0.1001116   -6.7651157   -6.6149859  -0.90776466         5000 
    5600   0.10230673   -6.7676554   -6.6142337  -0.96264397         5000 
    5700   0.10393494    -6.770752   -6.6148886  -0.94915489         5000 
    5800   0.10173458   -6.7687575   -6.6161938  -0.95483807         5000 
    5900   0.10140673   -6.7703898   -6.6183178  -0.93102449         5000 
    6000   0.10005933   -6.7706851   -6.6206337  -0.90591129         5000 
    6100  0.099368127   -6.7734786   -6.6244637  -0.92483127         5000 
    6200   0.09872002   -6.7757793   -6.6277363  -0.95952508         5000 
    6300   0.10005816   -6.7800791   -6.6300294  -0.91973073         5000 
    6400  0.099979274   -6.7814794    -6.631548  -0.89686523         5000 
    6500  0.096828902   -6.7770693   -6.6318623  -0.89435867         5000 
    6600  0.099669705   -6.7810001   -6.6315329  -0.94261441         5000 
    6700  0.098302108   -6.7776745   -6.6302582  -0.93494065         5000 
    6800    0.1001502   -6.7791984   -6.6290107  -0.90357932         5000 
    6900   0.10128412    -6.778945   -6.6270568  -0.89031331         5000 
    7000    0.1037782   -6.7822754    -6.626647  -0.91278316         5000 
    7100   0.10014871   -6.7770157   -6.6268302  -0.90194592         5000 
    7200   0.10142758   -6.7810598   -6.6289564  -0.88498331         5000 
    7300   0.10098741   -6.7826676   -6.6312244   -0.8782249         5000 
    7400  0.097751268   -6.7809794   -6.6343892  -0.90631537         5000 
    7500  0.098051656    -6.784708   -6.6376673  -0.90270829         5000 
    7600  0.098999411   -6.7887766   -6.6403146  -0.89263685         5000 
    7700  0.099640975   -6.7915758   -6.6421517  -0.89836059         5000 
    7800  0.098307907   -6.7900059   -6.6425809  -0.90940927         5000 
    7900  0.099091088   -6.7898938   -6.6412943  -0.91234873         5000 
    8000   0.10110547   -6.7905619   -6.6389416  -0.88818251         5000 
    8100   0.10140587   -6.7882549   -6.6361841  -0.90190898         5000 
    8200    0.1014111   -6.7870136    -6.634935  -0.85788764         5000 
    8300   0.10336598    -6.789289   -6.6342788  -0.84100472         5000 
    8400   0.10154365   -6.7872046   -6.6349272  -0.86071702         5000 
    8500   0.10175477   -6.7898296   -6.6372356  -0.86358875         5000 
    8600   0.10116323   -6.7911389    -6.639432  -0.88674359         5000 
    8700  0.098618928   -6.7907006   -6.6428092  -0.90485104         5000 
    8800  0.097516053    -6.791774   -6.6455364  -0.85470015         5000 
    8900  0.098699223   -6.7948172   -6.6468054  -0.81926453         5000 
    9000  0.099239362   -6.7957245   -6.6469027  -0.86642503         5000 
    9100   0.10056833   -6.7967572   -6.6459424  -0.89179599         5000 
    9200  0.099053649   -6.7926309   -6.6440876   -0.9107343         5000 
    9300   0.10080585   -6.7934379    -6.642267  -0.90401409         5000 
    9400   0.10169373   -6.7931664   -6.6406639  -0.90103588         5000 
    9500   0.10109614   -6.7916398   -6.6400335  -0.90057503         5000 
    9600   0.10114904   -6.7920327   -6.6403471  -0.86611075         5000 
    9700    0.1022274   -6.7955602   -6.6422574  -0.88068433         5000 
    9800  0.099556807   -6.7937105   -6.6444126  -0.88256466         5000 
    9900  0.099719502   -6.7969037   -6.6473619  -0.87394844         5000 
   10000    0.0990422   -6.7995809   -6.6510547  -0.92899393         5000 
Loop time of 24.479 on 1 procs for 10000 steps with 4000 atoms

Performance: 176477.659 tau/day, 408.513 timesteps/s
99.1% CPU use with 1 MPI tasks x no OpenMP threads

MPI task timing breakdown:
Section |  min time  |  avg time  |  max time  |%varavg| %total
---------------------------------------------------------------
Pair    | 20.394     | 20.394     | 20.394     |   0.0 | 83.31
Neigh   | 2.7906     | 2.7906     | 2.7906     |   0.0 | 11.40
Comm    | 0.34937    | 0.34937    | 0.34937    |   0.0 |  1.43
Output  | 0.28162    | 0.28162    | 0.28162    |   0.0 |  1.15
Modify  | 0.58717    | 0.58717    | 0.58717    |   0.0 |  2.40
Other   |            | 0.07608    |            |       |  0.31

Nlocal:    4000 ave 4000 max 4000 min
Histogram: 1 0 0 0 0 0 0 0 0 0
Nghost:    5848 ave 5848 max 5848 min
Histogram: 1 0 0 0 0 0 0 0 0 0
Neighs:    157256 ave 157256 max 157256 min
Histogram: 1 0 0 0 0 0 0 0 0 0

Total # of neighbors = 157256
Ave neighs/atom = 39.314
Neighbor list builds = 500
Dangerous builds not checked
Total wall time: 0:00:24
