6
	Energy:       0.5643263
H          0.98032       -0.12539        1.09884
C          0.40127       -0.05664        0.18349
O          0.96258       -0.16245       -0.89526
N         -0.93225        0.14483        0.24088
H         -1.40091        0.23342        1.15383
H         -1.49275        0.21185       -0.62165
