4
	Energy:       2.8927989
N         -2.66037        1.28420       -0.01851
H         -1.61726        1.27900        0.00135
H         -2.99839        1.97354        0.68792
H         -2.99839        0.33714        0.25956
